# vtk DataFile Version 3.0
3D Voronoi Mesh
ASCII
DATASET UNSTRUCTURED_GRID
POINTS 52 float
1.873212346718421 1.0 0.0
2.0 1.0 0.0
2.0 0.0 0.0
1.3182385174716775 0.0 0.0
1.4046108944230755 0.5748573916888635 0.0
1.3766301763617996 0.0 1.0
2.0 0.0 1.0
2.0 1.0 1.0
1.6380287617131806 1.0 1.0
1.0551545948914312 0.0 0.5146939672998847
1.4647576479251918 1.0 0.738426425953195
1.1733730065725338 0.5950765609680195 0.45833416964047635
0.0 0.0 0.0
0.0 0.6676942124854538 0.0
0.5326494828255943 0.38555814931163945 0.0
0.5969912761202569 0.0 0.0
0.0 0.0 1.0
0.277597433540222 0.0 1.0
0.0554898975713429 0.8994666101932928 1.0
0.0 0.9288587371951752 1.0
0.6901927080049897 0.0 0.5330793854887411
0.6042031438337698 0.47744828972850584 0.49697021712698736
1.4046108944230755 0.5748573916888635 0.0
1.3182385174716775 0.0 0.0
0.5969912761202569 0.0 0.0
0.5326494828255943 0.3855581493116395 0.0
1.0551545948914312 0.0 0.5146939672998847
0.6901927080049897 0.0 0.5330793854887411
1.1733730065725338 0.5950765609680196 0.4583341696404763
0.6042031438337698 0.4774482897285057 0.4969702171269874
0.277597433540222 0.0 1.0
1.3766301763617999 0.0 1.0
1.6380287617131806 1.0 1.0
0.4086148721521974 1.0 1.0
0.05548989757134297 0.8994666101932929 1.0
1.0551545948914314 0.0 0.5146939672998847
0.6901927080049897 0.0 0.5330793854887411
1.4647576479251918 1.0 0.7384264259531949
1.173373006572534 0.5950765609680198 0.4583341696404763
0.6042031438337698 0.47744828972850595 0.49697021712698736
0.0 0.6676942124854538 0.0
0.0 1.0 0.0
1.8732123467184212 1.0 0.0
1.4046108944230755 0.5748573916888635 0.0
0.5326494828255945 0.38555814931163945 0.0
0.4086148721521974 1.0 1.0
0.0 1.0 1.0
0.0 0.9288587371951752 1.0
0.05548989757134288 0.8994666101932928 1.0
1.464757647925192 1.0 0.7384264259531949
1.173373006572534 0.5950765609680196 0.45833416964047624
0.6042031438337699 0.47744828972850595 0.4969702171269874

CELLS 5 202
45 8 5 0 1 2 3 4 4 5 6 7 8 5 3 2 6 5 9 5 1 0 10 8 7 4 2 1 7 6 4 3 4 11 9 5 8 5 9 11 10 4 11 4 0 10
38 7 4 12 13 14 15 4 16 17 18 19 5 12 15 20 17 16 4 12 16 19 13 4 14 15 20 21 4 21 20 17 18 5 18 19 13 14 21
31 6 4 22 23 24 25 4 24 23 26 27 4 22 23 26 28 4 24 25 29 27 4 28 26 27 29 4 25 22 28 29
38 7 5 30 31 32 33 34 4 35 31 30 36 3 33 32 37 5 31 32 37 38 35 4 30 36 39 34 4 39 36 35 38 5 38 37 33 34 39
45 8 5 40 41 42 43 44 4 45 46 47 48 5 42 41 46 45 49 4 47 46 41 40 4 49 42 43 50 5 44 40 47 48 51 4 50 43 44 51 5 51 48 45 49 50

CELL_TYPES 5
42
42
42
42
42

CELL_DATA 5
SCALARS volume float 1
LOOKUP_TABLE default
0.6513790841097444
0.3251113514232102
0.15884931157331245
0.3951422746950272
0.46951797819870567

SCALARS cell_id int 1
LOOKUP_TABLE default
1
2
3
4
5
