# vtk DataFile Version 3.0
3D Voronoi Mesh
ASCII
DATASET UNSTRUCTURED_GRID
POINTS 2847 float
0.624039150952658 0.0 0.39818188033383356
0.6722681355610274 0.0 0.34987486380400873
0.7809421840833733 0.0 0.37547808730619986
0.8157239254068821 0.0 0.4447767670547665
0.7311110034819429 0.0 0.5528799772257306
0.6668757247035851 0.0 0.5392258077903691
0.6252750948741209 0.11535501740197446 0.4351819952398223
0.6532377900742092 0.14544580870940405 0.41714859965731443
0.6731010252406345 0.15458729927686343 0.42717828555612813
0.7201421324900608 0.12754917915621744 0.541829961625024
0.7182239832760162 0.12492124188215825 0.5441196152799324
0.6575073513842342 0.08647736867059626 0.533066328990819
0.6970414195200899 0.09432539094294902 0.35632862360299106
0.7393484319606212 0.14200097434572184 0.4105090909986046
0.7789478313141314 0.12391063530244754 0.474386199611359
0.7265679656426146 0.12621798572780307 0.5409842252686881
0.723655272724764 0.12071928304634058 0.5454766457712289
0.7328512539950441 0.10256289873915109 0.36481920051413386
0.15621845755603947 0.0 0.17235517174816717
0.14600914412013108 0.0 0.30804352527611245
0.052502879596160096 0.0 0.3685902668557416
0.0 0.0 0.36180316256613104
0.0 0.0 0.12101198653755865
0.033344563807512904 0.0 0.11226701674542192
0.0 0.13030274417025148 0.30311581301316504
0.0 0.1519035181149856 0.2328348510246948
0.07189771305182169 0.11008756560738732 0.32151486878444246
0.14586018116317145 0.10980106727254858 0.27371286429803293
0.15753882219158027 0.0946229405608182 0.27090972727802737
0.15999876304602992 0.04488803805189026 0.17719043284733163
0.11347292647842186 0.08990185337404599 0.15743320407609362
0.08778009330522743 0.1431768668113542 0.2033895072320134
0.44297445346348185 0.20589245799638356 0.2678525826542625
0.44678019201305125 0.2306295177398045 0.23071891687947182
0.48187206144861416 0.21115934464711597 0.21053311131378047
0.4835392354217646 0.17032210738749615 0.2615214072811509
0.48459787831541434 0.14914887565472995 0.2663995421511261
0.48768859019077043 0.10604221349245797 0.17251620275015117
0.42432078823708436 0.06525018469346182 0.15961831155231007
0.3903169527928719 0.07181864823424855 0.21233903146969788
0.4440732261845607 0.13582322722316822 0.284896528782006
0.3504998410157869 0.1807536456505821 0.15190781843115425
0.3815044951602867 0.2132676153486319 0.14819903820072383
0.415868529789362 0.16825572140082942 0.28738028591848724
0.34306318015804094 0.13414670378744495 0.22140926770478953
0.42678179235743485 0.17873685604220313 0.10106835711629332
0.4843877836309544 0.17613829369085088 0.13373340703045838
0.40016932010096334 0.14801775475827464 0.1028218950252513
0.46451088568740156 0.12244327167710477 0.8609671995237085
0.4401359247370124 0.13868451399159726 0.836629235272308
0.4235046780162375 0.1777867982779335 0.8628407139022997
0.4534670073074291 0.1633307413089641 0.901174287572155
0.5282905117804807 0.11298536468027343 0.8405234797281944
0.5440508834197083 0.12873816257841905 0.7894097219005959
0.5223531685842258 0.1473413941186632 0.7571884169173398
0.45816486856993255 0.1594278554626072 0.7712244068044363
0.5127854385994917 0.29810466787999207 0.8422706935452897
0.5281957106850672 0.29557861149817055 0.8528733655085418
0.500821048212654 0.2642893289544114 0.914792415439919
0.47282217376189944 0.27589456580931143 0.8796929736594841
0.5596916705654357 0.20973078124020322 0.7497135953094254
0.4904383850197883 0.26192029204994455 0.7652462364983577
0.44335513100356594 0.22744960967647762 0.7751111738819136
0.5605009803620835 0.19216078470615947 0.7493635148156433
0.6022722603182077 0.19778879729128662 0.8234267247864834
0.580672689030786 0.17080216940338985 0.78269829314947
0.5745768892382065 0.16868838551229312 0.8841369142419219
0.5080638080540356 0.2164650292989268 0.9408754826296627
0.4210377389362277 0.22615317413116 0.8417880426829485
0.593785558394026 0.22901154819063202 0.8116472390969609
0.3768612766052708 0.8574269532922015 0.0
0.44726201889168316 0.8676562506073116 0.0
0.44913360920110756 0.8135491287881551 0.0
0.4390800135022786 0.8075443604980174 0.0
0.39286133695225284 0.8615555250974667 0.1933500057614886
0.42980712206416594 0.8227939583752285 0.19254143415816863
0.40176703452047796 0.7807592405345225 0.17971376431172098
0.3648198608306514 0.7863015075599267 0.17427305513408778
0.3458625588680072 0.823564129668333 0.17795617532178948
0.3926346770744935 0.8915661524456757 0.17277730282822718
0.45997849655505757 0.8920206004282307 0.1221567320282962
0.46690799377835024 0.8246033807280313 0.1635761357894856
0.3423565181955047 0.8778551016647143 0.13802586863718158
0.32725741864104674 0.8366717554038289 0.1527533949522737
0.4047270440337374 0.7573603810353803 0.08121385690691267
0.44223270125499203 0.761837746533938 0.13028267748718897
0.46427891632629004 0.7769233740212634 0.12503202055990859
0.36967360838050173 0.8574818600712506 0.0059638003638427806
0.32801787681272243 0.7962694505984798 0.10481859522911012
0.3429515070157845 0.776181696930414 0.11329779496887465
0.25361943813085586 0.6868934429897242 0.641312791365953
0.2936199988262995 0.7427995379064828 0.6203613661398224
0.2930365984684711 0.7451097110691909 0.6224466699492046
0.260030707747975 0.75032545818296 0.6689714577886123
0.24409048633712765 0.7326143936968296 0.6799214016727628
0.24403988355602318 0.7328132834094954 0.6819441902554957
0.26067986263873794 0.7520481063527221 0.6763289581726686
0.38137120469118174 0.6191733947581044 0.6786241016464842
0.30703880836929875 0.5999994377991126 0.7013888696404533
0.2983004172326329 0.6078589798034413 0.7178949232510236
0.3444876237702769 0.6492785575263097 0.7440973547437268
0.39253154337838614 0.658785410903101 0.7254371034700633
0.3973336031779518 0.6363312096579784 0.6915675486661704
0.26613627474455526 0.6240448330329802 0.7061628041597378
0.2473191677380669 0.7160503299508335 0.7112404134163367
0.2959914327619512 0.7440703258990565 0.7365915738475809
0.34757071187259997 0.696161589892858 0.7522294142113395
0.39504645360656127 0.6748520950044302 0.7275993343789897
0.26721291023639143 0.6202229712564812 0.6461618181618939
0.34478981579359347 0.6424173181822294 0.6175760237025004
0.3420900124798042 0.7057844063887351 0.609609812369175
0.29427901094452763 0.7635940021337971 0.7053620744829905
0.33343616188412 0.7598689499214832 0.6613285007263886
0.386953412819127 0.7236923957480763 0.6543800345894234
0.4104807902734182 0.6902481810773666 0.6813627851760866
0.26831279939302727 0.6145267233853522 0.6590458939116095
0.3852287713869214 0.6278577844002436 0.6604425741833174
0.40314148728507804 0.6466004040461395 0.6773697458121769
1.0 0.4454640787991202 1.0
1.0 0.6062639903258897 1.0
0.87565379066611 0.6190007862170223 1.0
0.8129652798577753 0.5343533951319692 1.0
0.8301575189145358 0.47220066584903514 1.0
1.0 0.44055893010367947 0.8609509329021638
1.0 0.535698670160921 0.8061068544553964
1.0 0.5976742839566864 0.837473616592292
0.8979037175997452 0.6074288365305789 0.8241686866654854
0.8549472085041565 0.6133044351009292 0.852087825686678
0.8102911851305927 0.553820795542458 0.8466748918876278
0.8418973208246069 0.5290001089289568 0.8153712572534731
0.8966199093248958 0.556024435427588 0.7979227875636954
0.8355010509110432 0.46613259699213677 0.8518303313906143
0.8211767573547254 0.4690188979177481 0.8697281963721782
0.8014382212424221 0.5390994700079255 0.8650600406111751
0.4914168279280796 0.46916752714183957 0.7115665350314494
0.5095748194658988 0.47190853356724644 0.7587324193702117
0.5438057886366341 0.45448192851333263 0.7766221350393574
0.5641389787376886 0.42707121420396077 0.7336209225707389
0.5301434021737592 0.4354768793250763 0.6878726942960754
0.5275563234024206 0.5155965270065824 0.7875229203974056
0.549845903325769 0.49882770243289337 0.7971821848830198
0.5546131104658764 0.474290492155044 0.791559154088109
0.6015401362082262 0.44155048352453685 0.7258696884925931
0.6084094268159431 0.4587383972222145 0.7404178611041178
0.6266758385239009 0.5484442098974545 0.727528090144305
0.6207726310024264 0.56405494831103 0.6794144384620461
0.6199483463406933 0.5630743883633523 0.6764005571355524
0.6016738696913436 0.5108270590523325 0.6453426682598025
0.5941603843969859 0.4664830765678044 0.6593717991405192
0.4862436903786101 0.5093964204841679 0.6801964006427367
0.5105667499427833 0.5815058123325799 0.7134497544309369
0.5249324200528017 0.5864757138161023 0.7495400010785531
0.5382997361724572 0.4475525398443783 0.6643513884826708
0.5098159280925143 0.512353972196902 0.6430935206185722
0.538032836986265 0.5915653085058411 0.6770688571305564
0.5497541863604583 0.6022004069580197 0.7120402612195885
0.5354102438012744 0.5964787362855957 0.6866276149624212
0.5890588442052891 0.5640713071650005 0.7635124610436566
0.5204528398953981 0.5258755786664381 0.6389756906438697
0.5449930971381549 0.5973906662087026 0.7443266081205764
0.6248206859855392 0.15861917748795565 0.5934051815454798
0.6079246237379222 0.205299419962113 0.5718257495915765
0.6539426050368963 0.2267335713610924 0.5678720415183058
0.6743574166210982 0.20866619420176366 0.5777607439333463
0.6648577902572216 0.1720370008109837 0.5921736811193442
0.6353944905099034 0.17022521145411248 0.41394708451653267
0.6038011994102828 0.1651316994352465 0.4246552175420833
0.5964634982492628 0.13401745828466355 0.4371523925328998
0.6062198037058861 0.11712284684477794 0.5687987232480609
0.5667454133044233 0.1469951424484675 0.5176582030350101
0.569921600231774 0.20742276408991 0.5223477990538375
0.7048532456991572 0.19584346550018647 0.5484651970141984
0.6692558614992518 0.24329467159173584 0.48161606631408876
0.6633369373563213 0.19695996442978358 0.4304990134194077
0.5789970798110605 0.21931590465118264 0.5011725309377129
0.6507753810391151 0.2508095350786504 0.5001646180825821
0.4514378913486708 0.8186818862285419 0.23602859474807963
0.4354061874037308 0.8508795709796424 0.2727606894686066
0.4192321094388763 0.7994662680686004 0.3174133144626197
[...]
CELL_DATA 512
SCALARS volume float 1
LOOKUP_TABLE default
0.002834806725538794
0.003102112508646351
0.00156066809482952
0.0022008525044818787
0.0017314121055588747
0.0015555874686752629
0.004608388654900026
0.001539200741684308
0.001554999996039804
0.001384459654985395
0.0025027102295891793
0.001535249252592246
0.0017045520043513888
0.0021682390703799967
0.0025005022620067994
0.0024697450319922038
0.0017013530579602875
0.002266995428994159
0.002307411680381121
0.0012085161742635409
0.004025840072888663
0.0014581062589268967
0.001573797833454572
0.0028676024755685554
0.001804528679892047
0.001930269219782939
0.001392619861627543
0.0017070115037374246
0.0016990460773348651
0.0016898367756597713
0.0020223639778131717
0.0016417509852810212
0.001041324248527101
0.0024295840153187014
0.0016365442907936888
0.0021730132837207484
0.0018810025133768444
0.0012537131900799603
0.0016387355809063216
0.0016407853331305094
0.001238434139751605
0.0024911196150808838
0.0029106524520364613
0.0016576482636596124
0.002608335828077888
0.0015653015095968795
0.0017018529055351764
0.0016304859459033893
0.002140698136152203
0.0013079131602135453
0.0025025696278033888
0.0022852979074139907
0.001972882333853899
0.0012695884287130495
0.0018278953519451733
0.0019335371102353375
0.0013855567948233341
0.0021945207096147976
0.0018669877885148767
0.0020804118524628077
0.001269579583945399
0.0014242115900678833
0.0016386537829238524
0.0018076123321942939
0.0011100472153850439
0.0017331446111285725
0.0021973532331917714
0.0015757030259805022
0.0016103063981663874
0.0021436315214143015
0.002820362135273716
0.0021182084836790403
0.0015547953063675447
0.0021318178165366333
0.0017325256961999319
0.0016103080459383403
0.0014374716938838664
0.001477425009689606
0.0024221703890388645
0.0026498550300659224
0.0014351381803492577
0.0014127393926008024
0.0013000707028733333
0.001422730451957269
0.0026087356450249545
0.0014225199551111223
0.0021961359120386465
0.0015231680070738182
0.0011059460951392823
0.0017848343157232018
0.0022169027113681256
0.0015150016952295328
0.0037910499363048677
0.0016735913942734994
0.001657638988703532
0.0032500064161770275
0.0009046155214526105
0.0027361888257532658
0.0023394943219364078
0.0012926417240271453
0.0027449388207973348
0.0021051693233706133
0.0029742832782677555
0.002921952372272842
0.0013070999757489549
0.0036071471572302434
0.002081446305287371
0.002148860045107317
0.0031134927290981185
0.001699373353581997
0.002248997767164201
0.0017012087619718893
0.0018927045608826065
0.0013633297689680578
0.001611479966857832
0.0011325789912002072
0.001953186464226282
0.0015000281259492925
0.0017491092752914465
0.0015445343136347525
0.0013005893217853607
0.0015693445847713063
0.0023609400028084377
0.0024569883576120617
0.0028374055331490044
0.0026471514013161794
0.0026532714437935653
0.0016073370245240463
0.0022316332177820487
0.001547059103851858
0.0011812385261331683
0.0009899358304446889
0.0018727286324040529
0.002658452897532771
0.0014740263777412955
0.0011672704298826947
0.0015037083631861258
0.0018218206879587146
0.0029984993978450264
0.0019008801627551342
0.0013064188951799156
0.0025177780723767275
0.002069181849586309
0.0025730094875599896
0.001553448217855059
0.0015748544981673209
0.0017313787194724894
0.001763969627367069
0.0012431105079977742
0.0017391407210334317
0.001844555564445176
0.002739420476349869
0.0014201233801964792
0.0015732585021190713
0.001325542153193487
0.0017666445812768348
0.0017076033544980531
0.0016676876240235734
0.0013008726849728664
0.001982238081977508
0.001590279461687993
0.0023642650715414784
0.0016447419807189127
0.0017636799148336203
0.0011474853670130395
0.00193452064946999
0.002458893560606709
0.0012636043699207654
0.0016154240433019435
0.00266404191183364
0.003549691588429626
0.0013558613281419588
0.0017769043146822227
0.0020244737340176914
0.0012198272816541713
0.0018812579361442566
0.001159845911603086
0.0016389932129417288
0.0010302490994853692
0.0019949467685090217
0.0029271490554068145
0.0012391636119861368
0.0017605862675242013
0.0013334846781905304
0.0013313348240734813
0.0030135621262284253
0.002406479320039969
0.0018408940797398018
0.0016235945777394174
0.0013699389913278109
0.0025628844841015645
0.0017374843629055054
0.0016040958013424655
0.002022738571991749
0.0015752857456508877
0.0013827221873145502
0.0012906585924269732
0.001370089017995601
0.001880054864869828
0.0015944764800969256
0.0015950645836282711
0.0011065609721368855
0.0019504809336993118
0.0009872045077322874
0.0018663214866324461
0.002229054387160686
0.001995836311986798
0.0016702412662716324
0.0015784546292217417
0.0012289691000122397
0.0014847818754573727
0.003245120687083688
0.0011379601715352475
0.001536206378348551
0.0018727734898565586
0.0011932627768821205
0.0023028990872523522
0.0029561797354338004
0.0025720821338162075
0.002362121934802321
0.0018199466019467913
0.002144420334002622
0.001558419480702007
0.001259500419391793
0.001617648729266078
0.002285649026902581
0.003425097786667048
0.0010786979395884257
0.0012634016575890604
0.0023612384507391646
0.002848096668193306
0.0011049150131180548
0.002137636858283964
0.0013842261466904743
0.0013960156151814841
0.0014281285657071533
0.002993559224606648
0.0019207919393780146
0.001687777021647298
0.0027511831585959163
0.0017242814678931696
0.0019486432579120647
0.0013605242947101173
0.0015382181102867765
0.0018453667236871896
0.0014079039202851548
0.001301312350339344
0.0016280503344152793
0.001352525972991483
0.0010559124903803117
0.002728367830474525
0.001322412249807527
0.0014774336954496239
0.0026380923895025932
0.0019690013036923557
0.0014842030216445866
0.0018453669042510544
0.0012261094533459384
0.0019914707132343596
0.0013640231634574542
0.0036315477032996682
0.0016245052323288407
0.001246209162107159
0.002143620200232935
0.0018272257973338246
0.0021356962849344253
0.001800042538559788
0.0018208732537422678
0.00455297593767474
0.003444090804379946
0.003808628117263794
0.0029165735556134094
0.0019437318292655438
0.0010599052604435377
0.0012973235818628988
0.002581954316827074
0.002302808531916403
0.0028522523474177747
0.003277676360750581
0.0018040451629294004
0.003599220962263044
0.0024902927769395304
0.001634500586854848
0.0013855408293342894
0.0017198668432579023
0.0023667618273933715
0.0014066039144059075
0.0019402669656500909
0.0023073316342014693
0.004106662540152856
0.0024343425768812085
0.0016879916887925818
0.002090131886412011
0.001348712233531351
0.002470632446164575
0.0012108498477996638
0.0026773474031631605
0.002121520778472686
0.001660128798183147
0.0016164030788344322
0.002135442903952756
0.0019033425252187022
0.0020245014134491813
0.0014167334154130639
0.0012856545523999197
0.002684722170233991
0.0022855123547421705
0.001577066468344483
0.0026888569696302293
0.0013338127265288425
0.0029062023174686313
0.0023029643099289855
0.0010383637010382512
0.002194900873104134
0.0011174796131613548
0.0015036659823258562
0.0013723399049850934
0.0015750675064861686
0.0016982462801193217
0.0015561728251471303
0.001542799547346548
0.0016234851055689774
0.003519066332282944
0.001443751304700429
0.0018564641508824833
0.0014350332231238376
0.0015115565865940427
0.0023533701545070855
0.0016088802934727357
0.0012254793610621752
0.0020030343448447694
0.0019839725594546233
0.0016389242336392344
0.0015178583311151622
0.0012339153812150397
0.0021971205545910787
0.001304728189741128
0.0021873374170006035
0.002218228098037121
0.0028574381659295664
0.0024125411996065195
0.0023250540516149307
0.003349746380297803
0.002467227497363735
0.0014448998550360562
0.0014356858421794244
0.001562095741502071
0.0012443373038955833
0.001486991559568937
0.0012796220825065576
0.0014032791429546478
0.0014758606948964892
0.0016688686494432893
0.0014879535957058995
0.0032053242724945684
0.002756696812059124
0.0014525692050253122
0.001260263148711863
0.0016904834462819936
0.0023699028099791377
0.0014805560511133966
0.0027581774186514418
0.001479609245744507
0.0018549314053181213
0.0017868098297762454
0.001956823666833101
0.002931931696409625
0.0019694297089193577
0.0015776155033472756
0.0011695709584269782
0.002076735117184364
0.0015689288212857
0.0033086235878141785
0.0025338134425028054
0.0012981637447296553
0.0013659436428800338
0.0012373190125629582
0.0029976956245317795
0.0014413857318227282
0.003332576774905552
0.001123225125068329
0.001649824119065196
0.0009020850093344107
0.002688141676559657
0.0013673036015137644
0.0019930305126587347
0.0017692252065947115
0.0019933219054104573
0.002153754252695466
0.002227127528107816
0.003243054818789299
0.001955217071814873
0.0014290226661388698
0.0020664908109823276
0.0025495103258609043
0.001472308146092581
0.0028558515102934164
0.001116636231333813
0.0016622935333020401
0.0024952540534310783
0.001438388550274394
0.0014585083404493162
0.0036068057866036423
0.001557246604336488
0.0026518232109725964
0.004182018198514738
0.0015312517057075542
0.0018863738139887332
0.0012854398197059212
0.0019288346795390606
0.002033921363457114
0.001827464633921202
0.0027723279104448534
0.0026739268168564506
0.0032744614641494097
0.001083179881808298
0.002083334047094931
0.002339987738687218
0.0012820085213280123
0.0009945011589855026
0.0030486860686015204
0.0029999913477754547
0.0019016176003205985
0.0021596154950682795
0.0016936287554131827
0.004089871140485954
0.0013734312224086083
0.0016168062332583787
0.0012558014025191974
0.001061020764895014
0.0018146384627869576
0.0015131125971167008
0.0018269806250265708
0.001617801429954301
0.0014011870481295565
0.001624563227598225
0.0016082226023321554
0.0015313288994519714
0.0028114226765104822
0.0018162452187072678
0.001271107836421133
0.0018101600018759544
0.001991722264823796
0.00212793252385741
0.0028131373331051314
0.0029508417712572964
0.001605343983950379
0.0028159459135651214
0.004129679579659909
0.001958964095563961
0.00417922320174557
0.0015562457142608863
0.0017930498289188816
0.0013496113849726752
0.004341258152534542
0.002069039997499394
0.0025488897250703383
0.002827885931964614
0.0023778979428929516
0.0036002786674418094
0.001676534897973215
0.0016099256190295124
0.0017888062202334367
0.0011842353411051843
0.001689270195998129
0.0013780209929776398
0.0015374219407205438
0.0026658763271080687
0.0014884998207735961
0.0020533899138957057
0.003149567258361227
0.002981619840352345
0.0013903036946576518
0.0019102064081443636
0.001500631796478134
0.0014309449239382386
0.0013487559600833393
0.004112315345844158
0.002227750532627635
0.0009957109961959444
0.0013876626096121867
0.002903741824615252
0.0014469137792127095
0.001827147941506508
0.0011963510171132709
0.0017058263833848865
0.0031170513676525265
0.002977142692462349
0.0029841201386694403
0.0037005159199980735
0.0018704091458346115
0.0019344479664145354
0.003306008076295906
0.0015402979289239175
0.0016031007734374385
0.001347985364540728
0.0009646561357989768
0.0026377176863979523
0.001301996917752327
0.001703379382238547
0.001710907756299403
0.001545345833698031
0.001696137218263284
0.0016992323277133234
0.0013297389823202675
0.0016470913104682423
0.0016222602436493298
0.0015123583111890952
0.0019756270537087677
0.001900373445630384
0.0018687864325579665
0.0016653636447978679

SCALARS cell_id int 1
LOOKUP_TABLE default
1
2
3
4
5
6
7
8
9
10
11
12
13
14
15
16
17
18
19
20
21
22
23
24
25
26
27
28
29
30
31
32
33
34
35
36
37
38
39
40
41
42
43
44
45
46
47
48
49
50
51
52
53
54
55
56
57
58
59
60
61
62
63
64
65
66
67
68
69
70
71
72
73
74
75
76
77
78
79
80
81
82
83
84
85
86
87
88
89
90
91
92
93
94
95
96
97
98
99
100
101
102
103
104
105
106
107
108
109
110
111
112
113
114
115
116
117
118
119
120
121
122
123
124
125
126
127
128
129
130
131
132
133
134
135
136
137
138
139
140
141
142
143
144
145
146
147
148
149
150
151
152
153
154
155
156
157
158
159
160
161
162
163
164
165
166
167
168
169
170
171
172
173
174
175
176
177
178
179
180
181
182
183
184
185
186
187
188
189
190
191
192
193
194
195
196
197
198
199
200
201
202
203
204
205
206
207
208
209
210
211
212
213
214
215
216
217
218
219
220
221
222
223
224
225
226
227
228
229
230
231
232
233
234
235
236
237
238
239
240
241
242
243
244
245
246
247
248
249
250
251
252
253
254
255
256
257
258
259
260
261
262
263
264
265
266
267
268
269
270
271
272
273
274
275
276
277
278
279
280
281
282
283
284
285
286
287
288
289
290
291
292
293
294
295
296
297
298
299
300
301
302
303
304
305
306
307
308
309
310
311
312
313
314
315
316
317
318
319
320
321
322
323
324
325
326
327
328
329
330
331
332
333
334
335
336
337
338
339
340
341
342
343
344
345
346
347
348
349
350
351
352
353
354
355
356
357
358
359
360
361
362
363
364
365
366
367
368
369
370
371
372
373
374
375
376
377
378
379
380
381
382
383
384
385
386
387
388
389
390
391
392
393
394
395
396
397
398
399
400
401
402
403
404
405
406
407
408
409
410
411
412
413
414
415
416
417
418
419
420
421
422
423
424
425
426
427
428
429
430
431
432
433
434
435
436
437
438
439
440
441
442
443
444
445
446
447
448
449
450
451
452
453
454
455
456
457
458
459
460
461
462
463
464
465
466
467
468
469
470
471
472
473
474
475
476
477
478
479
480
481
482
483
484
485
486
487
488
489
490
491
492
493
494
495
496
497
498
499
500
501
502
503
504
505
506
507
508
509
510
511
512
