# vtk DataFile Version 3.0
3D Voronoi Mesh
ASCII
DATASET UNSTRUCTURED_GRID
POINTS 23125 float
0.7246979163379794 0.0 0.5222718575902875
0.697392863791825 0.0 0.5309183609893301
0.6689684912098007 0.0 0.5085712582566997
0.6933413435352839 0.0 0.4641722433037874
0.7324401309313183 0.0 0.48324058412410886
0.6677421061843325 0.0832976941610664 0.47603721646638214
0.6879440881102195 0.09433624206833602 0.47106342819472213
0.6965837573646697 0.09789959307773356 0.4797252784666378
0.6863215471916818 0.08904552841901005 0.5125155613688017
0.6643713246189716 0.07936978684974297 0.4963122578541624
0.7336780107773957 0.0852536404354108 0.48085367356736824
0.7269154916818534 0.0749344165062785 0.5144794959972853
0.6984453243399561 0.08117316614675625 0.5229046508948385
0.7371055873862774 0.0647198487662253 0.46264585331915237
0.7346358955053692 0.08101377520849275 0.47583298112849254
0.7327803242683417 0.06873634756491047 0.4591171272788718
0.6591511615381845 0.061373413460017144 0.4708794361427028
0.6849042535645111 0.03528712061015738 0.44758809198616106
0.7116172281527109 0.06851293801654465 0.4488749061343831
0.6532946299253742 0.05131098224982138 0.49065989951237376
0.15420463319240563 0.12351455201309482 0.3234110517614693
0.18465377026944252 0.09908978618669564 0.33134775841457115
0.16812809034953585 0.0701162287368137 0.3455637841493698
0.13901910518651855 0.06672642828242667 0.34970538352254205
0.1255602367358856 0.08079072738300763 0.34476367964948024
0.13765164399005633 0.1210506128672323 0.3260014416151788
0.17987081305308894 0.10278257474498104 0.283632017171441
0.1659338046958781 0.11396518592766182 0.2809826249894861
0.1608386206491703 0.08209638515808493 0.2650243798074093
0.16267917526777537 0.08083172951107269 0.2654627040112929
0.15395777436468394 0.12361173889631225 0.29077655019148974
0.19396649036539643 0.0915516964513855 0.3118441246573214
0.13497080371515338 0.04018636876558577 0.3132097529522922
0.1466230421313674 0.04375310395088787 0.33539992408794655
0.16890185360836932 0.05417425864936201 0.3365680308389587
0.1864154505010442 0.06461365725334518 0.3117429540914604
0.1677585335032803 0.05821539267983683 0.28408794582174324
0.11658038895401623 0.057636705846098375 0.30444652268853467
0.11092303058899833 0.07661987324882773 0.31724124708848406
0.1279994857673642 0.08255074704251927 0.2773358967254074
0.11944536403010303 0.11150800068569638 0.2966767997420288
0.12450415645943255 0.11921217423002213 0.29912949905640696
0.4633702823615298 0.10469664763180023 0.21819801959088528
0.4450143664337124 0.08331725042195723 0.2296706554517208
0.437510656582513 0.09509667057167943 0.24871913639102586
0.44284586028266826 0.11356373424602102 0.25395887594565625
0.4560627194272431 0.1281458211639699 0.24513014829536292
0.41184807694686565 0.09199898072452838 0.18582224247969556
0.422993447059814 0.07782715839605871 0.21591907275097033
0.455191030422392 0.1238910961481121 0.18410714849962134
0.43795019976915817 0.12259391777112494 0.16924413396925
0.39319391782155527 0.09697189757052241 0.19177869438355838
0.4045281128412608 0.08293178662121853 0.2212682097171963
0.44542561380727946 0.156926354487386 0.23557484597939532
0.4404267486065478 0.16782606895058663 0.2071679266257488
0.44506014573574604 0.15203176325136233 0.18165435771431812
0.40401774265933965 0.09114284471750503 0.23544778491873203
0.3867159106439701 0.11273841343474687 0.19076531533797159
0.3818974777624368 0.13626672170201015 0.21415809388520096
0.38836501738435947 0.1309742122132842 0.23654911818915125
0.4121496515697167 0.14443869888031333 0.24784105051096966
0.4306587875851128 0.14301752931248307 0.16751578968239902
0.4257782920832685 0.1712681846531538 0.21306641941662144
0.39883131578520503 0.15895287499226107 0.193930537140948
0.40450036977557774 0.1480704333155151 0.17629000558829416
0.42874744436050505 0.16259498477238285 0.2368180285435101
0.45541314926586124 0.1676190095171007 0.7670032454356558
0.44273681783197727 0.1666183963853576 0.7861975367648648
0.4541260539938875 0.15326692828692143 0.8057686628900703
0.4776455842209308 0.14448359463292718 0.7976441537691596
0.47645024131999303 0.15440336010335448 0.7735823646105612
0.45227192285989143 0.16914906760567122 0.8267990288223612
0.4723274195695858 0.17279519060636908 0.8348192640453146
0.49063108082110746 0.15931238321206478 0.8195734765476116
0.47913753721905455 0.14473584020706487 0.7982152923688182
0.45887291849725365 0.21392990366323075 0.8319714432577852
0.4725928507192653 0.20813571886098847 0.8369763936644047
0.4397065640600966 0.19415554697632914 0.8233601040325319
0.49562628876189085 0.22284308081279272 0.8199107692432173
0.5117036429216655 0.21560205697946508 0.806827328390444
0.5156345596469509 0.17983872878999468 0.8013534813335907
0.4710105657373439 0.24012724857882137 0.8037513199868865
0.4823959307210197 0.23710256813198893 0.8060456395063719
0.4337191796745837 0.1952872997373293 0.8026716063219828
0.5091880698493491 0.22127972161105353 0.7953884436545879
0.46316232187129647 0.23593907916518933 0.7905992384020619
0.47295773113461076 0.21863986589185463 0.765465397655722
0.5074156207286351 0.21072083749252832 0.7746874176351353
0.4483096280425318 0.2210165542412401 0.7829377348530928
0.46044448005967514 0.21002948125229803 0.7634169686071681
0.4986294719301201 0.15975605188488712 0.7783350474671392
0.5131878893095373 0.17387372034256554 0.7802540515946647
0.3471496575326391 0.823989982745923 0.09343965948892405
0.34261130240998444 0.8278792856731794 0.10590843372618132
0.3430006601258243 0.7973903199645554 0.12989691702861458
0.35533938624572553 0.778953368685682 0.10253104380072317
0.3577597096553633 0.7889589994890408 0.08584340586119864
0.3883128947151502 0.7755251983055462 0.1392056088825996
0.38347749627126415 0.767529681171975 0.11347150295919471
0.3519377501434738 0.7975710826697529 0.14249576531132996
0.37880938964798017 0.8363694990302569 0.08820869730313938
0.3836602710322288 0.8518283339569871 0.11546796266292168
0.3657607124504228 0.8474545578070809 0.12385725431752324
0.37676234172197326 0.8265532633328854 0.1556021099610355
0.37559985237660787 0.841081466672979 0.14277900142322097
0.38854181622778017 0.850345825751141 0.12035297061804248
0.42495572981158974 0.8114707180713495 0.1199853589417379
0.40192280775980277 0.8043099800549467 0.15088753254638293
0.3880410777275738 0.7882858421825425 0.07897390368083793
0.39868527495810996 0.8088414737377342 0.07966013797678799
0.39727168573946725 0.7729235736646218 0.10119671198360586
0.4203469036194901 0.7900552644361281 0.12055987435517053
0.42633421377453035 0.8077268181039513 0.11696474348665618
0.4027782801387742 0.784811124971914 0.14419199199622965
0.2862893750190287 0.6543364406625064 0.7471446533376287
0.28903459477411614 0.6558805903904663 0.7594119649139731
0.31840065672047785 0.6625559421879147 0.7772389617245834
0.34604608689661837 0.665972003582647 0.7609770010626806
0.345919768424804 0.6638517192019987 0.7368031155879745
0.3084565366099292 0.6559036397841053 0.7206032702386698
0.29783914838213976 0.6544548365955023 0.7252721657180728
0.2774842638691887 0.664846335402177 0.7530952871281965
0.3140105662181446 0.7008709248453451 0.7137407345142667
0.29439878826669935 0.6763909479516034 0.7095590435219131
0.29941991931572937 0.6615766717175426 0.7150898348309653
0.3502805051764132 0.6791995287956843 0.7356374578326219
0.2838932226425033 0.716091180047482 0.7599714843453896
0.27199335867241253 0.6775368957723483 0.7505978157995494
0.272818881687874 0.6931615022229759 0.733235698037053
0.27969230816430035 0.7130221839559974 0.741999984139353
0.3036384526880799 0.7210011118480133 0.7329295176594757
0.2990173947748249 0.7224176218653251 0.7693259923533824
0.3234595879266187 0.7023416880085447 0.7826268601412101
0.3523309377997554 0.6877795659339258 0.7547861065938948
0.3378694924654465 0.7090615571734327 0.7691468065272576
0.3129309188699059 0.7266171640190678 0.7589403150474585
0.33868354478858625 0.7047437876430682 0.7737828786837144
0.35152789170001253 0.6854212080839048 0.7617616151758687
0.8103127754200105 0.5445064846334324 0.8166886069013164
0.8284707823270363 0.5548055026877895 0.8442515455450268
0.8412259199181282 0.5437267797660372 0.8506464384944022
0.8352200680824778 0.5226828218492908 0.8290415887146169
0.8349362977575581 0.5949839312827409 0.7969351067684199
0.8496547788812362 0.6000731911300238 0.8243763584305943
0.8105373015710505 0.5524107044876053 0.8048606161664613
0.8698265570719634 0.5867672479438193 0.7790936354096202
0.842168225319196 0.5908023453075653 0.7831070936435078
0.8337833667263002 0.5601873580130148 0.7749093726527111
0.8538303881222398 0.552331447812584 0.7705422358445845
0.8774680246650494 0.5876410110186202 0.7861124747096405
0.8634770398041257 0.5989657274460154 0.8260861875783228
0.882970230437958 0.5779303905551927 0.8378250963701741
0.8706968235262174 0.5484512006245041 0.8508980651397006
0.897391962434425 0.5652878688737277 0.8090522612868132
0.854263555844959 0.5179586799691824 0.8208569943659544
0.8712367497437206 0.5288319840785813 0.7913312658116048
0.8793220322576097 0.5311616714837218 0.830930398242677
0.892902952789316 0.5397376167972906 0.8096446685215194
0.5821790706490628 0.512959022125447 0.7352900264107224
0.5519400633931266 0.4947124801270416 0.7452389963908678
0.5605799031954207 0.47135437526116153 0.7465328528299721
0.5862838626884056 0.4745590504709482 0.7398574844891076
0.5909994998273441 0.45009823425273 0.7902889367632044
0.598256314775669 0.4747770631395558 0.8172907964422064
0.6206254556591575 0.49469914224831585 0.8018872107023866
0.624917299648641 0.4927786023752762 0.7888435617282493
0.6090376770204494 0.4607283119217675 0.7683205939079728
0.5816298569860866 0.5293545100346284 0.8105266144469861
0.5734945819040514 0.5406919359115709 0.7860974519918544
0.5874453139282102 0.5323460929530431 0.7571292578065033
0.5965424172766132 0.5245020448120392 0.7535776867758737
0.5573546570502226 0.5324759616225502 0.7936224783797472
[...]
CELL_DATA 4000
SCALARS volume float 1
LOOKUP_TABLE default
0.00031133336813511913
0.0002116501611374643
0.0002539572897999645
0.00022848940492694624
0.00019655700004493127
0.0001614515523092335
0.00020145830914832864
0.00024460927717986924
0.00020831378219508974
0.00023476797527490517
0.00021889055781441127
0.00019189983657706084
0.0002281661270965323
0.0002441638967776052
0.0003037759203821671
0.0002131963617259356
0.0002092350652473449
0.00023204481016505615
0.00020251950456401336
0.0002306717346172278
0.0001823647780884497
0.00020769366961529033
0.00019530041822600402
0.0003095423855729686
0.00025211634320089233
0.0002047256125683297
0.0002869964193887961
0.00026270760964915347
0.00024773422144220935
0.00019152863975842142
0.00016650258282204625
0.00022208828990857063
0.00027732906412362556
0.00021207170587689321
0.00020245359488722618
0.00025764970126733634
0.00017918253600752342
0.00019593284396862356
0.00026157181349006686
0.00023672453890536196
0.0003288457001561563
0.0002331536025540925
0.00021164949285179082
0.00021622133988259213
0.00025564721761401027
0.0001937236092992138
0.00024381842398995561
0.0002633664224936615
0.00032762036149728337
0.00017224256044450013
0.00024085539504599255
0.000279026742733149
0.0002322321645313894
0.0001773140134086216
0.00020537792608140971
0.00021310619022334485
0.0002611739697282381
0.000176715686999845
0.00021588028852396088
0.00042468404045903395
0.00018707875891672544
0.00019967718063227866
0.00024160039054347038
0.00018196565824563714
0.00019410559100915985
0.00020393279007042552
0.0003040306527476547
0.0003355311507055892
0.00027212736526711196
0.0002103003496591074
0.00018425612992711005
0.00021084244832308751
0.000333305086454139
0.00016285428606854007
0.00040310592060314
0.00023007983301662443
0.0002649330994495552
0.00020576237412751476
0.00025345454402577925
0.0003487484573004796
0.00016740986578512752
0.0002679546573984746
0.00027132816060208083
0.00018653228534703793
0.00018323443184451227
0.00020686564228451518
0.00023538573171938323
0.0002185844794339172
0.00021629976278242342
0.00024867522731015053
0.00024321770788031407
0.00023278968709744018
0.0003943053521363431
0.00024237452501277347
0.0004163710029675591
0.0002446057030675138
0.00024838436357787347
0.00037411841386704404
0.00030427996807101264
0.00020172203402731917
0.00022994323463342825
0.00019371693274309926
0.00017468541577019678
0.00029661816990581995
0.0001984684582924785
0.00033644506393928046
0.0003917251648449865
0.0001634979771876758
0.0003416755217004956
0.000409797083847331
0.0002893955808077367
0.000201690010950424
0.00029591823415178693
0.0001994579497690226
0.00019263769080199864
0.00031174286022075893
0.0002812955375746154
0.00028054561767562456
0.00026089266584743755
0.00023446123151732153
0.00026917717583242837
0.0002546091462798358
0.00037672956949985755
0.0002601771583491013
0.0004015694570115227
0.00037779516391421873
0.00027648119728488577
0.00023925344685803786
0.00023852294133794292
0.00019471259586199117
0.0002781988822087727
0.0002980662207343832
0.0002888279105220207
0.00018986567761778114
0.0001949746535629394
0.000300097368946404
0.0002026935380167445
0.0002530527728204985
0.00029157870977097243
0.00030224910985445673
0.00014245732330635588
0.0004074595494135275
0.0002802371697801573
0.00034679527522672835
0.0002522225896180738
0.00023313404319386937
0.0002906080873770151
0.00023712100253086714
0.00019478051158979155
0.00021878813269153713
0.00023809501354467403
0.00021051615586634422
0.00032326294732991796
0.0002839355445354448
0.00022902684362155191
0.00037822849493170026
0.00021068028216248287
0.0002619924714587575
0.00020931239065248187
0.00014464017145338586
0.0002841155249335833
0.0002076067720045531
0.00020154555191364702
0.0002536731594432723
0.00018357272979308904
0.00023796358030210736
0.0002108621131673265
0.00019221183519106496
0.00024164025522708323
0.00019768380935405517
0.00036595172311123137
0.00024683204568567003
0.0002930063720228116
0.00041661765629536526
0.00019341341892908928
0.00023737658958982073
0.0002044784202462142
0.00020743853937240107
0.00016421949299139153
0.0003660474082797652
0.00016515959603292666
0.00020881423606728395
0.00023714311084806807
0.00020177104240469722
0.00021234082067963456
0.00024654201470656364
0.0003454732266952105
0.00022524971490255755
0.00019757323110942743
0.00019170251014443942
0.00023085086338141562
0.00027798148282433315
0.0003722260114201328
0.00028061021747380246
0.00019485469051078806
0.00024255574446429697
0.00021567719010173104
0.0002344948045304277
0.00023870472705125336
0.00023414318306956273
0.00022117739134250552
0.0002730108287797732
0.00034622221379864684
0.00018933578645994735
0.00026406139778580923
0.00020947773876880897
0.00022541007794874788
0.00023414250043536907
0.00021748758391477288
0.00021371272066922947
0.00022892500857415858
0.00022332955741620087
0.00024516577882023
0.00025543090902405466
0.00025859866925311676
0.000255848206224773
0.00016387392567760017
0.00037967992787358554
0.0002661515583411117
0.0001688094437358753
0.0002485725366672948
0.00023624153683953899
0.00021542696406976253
0.00022408853869966804
0.0002793087242674686
0.00026052398670002526
0.0002278422541200811
0.0002584359963095815
0.00015192471245943537
0.00016238039735831143
0.00025486542582668414
0.0003061056547210874
0.0005074386920183824
0.0002450541946085901
0.00020231120137163345
0.00023854221096328656
0.00020659068305252135
0.0002362543402826294
0.000219307540652356
0.0002092530870677358
0.0002684459703893978
0.0003782955626433556
0.000203367035331936
0.00026638286076658996
0.0004459532699698954
0.00025096760455479294
0.00017647061727540887
0.00019044685979382122
0.00022209891159587507
0.0002542965460333231
0.0002949060146221538
0.0002643440231963316
0.000245652549907681
0.00023815698822337596
0.00026892899551347806
0.0002546602710268369
0.00028431292295486623
0.00027907114224858995
0.00023775042030635665
0.0003086149970513568
0.00060201729629114
0.00018822370756198966
0.00022451351592421174
0.000193796250871767
0.0001913785713019952
0.0002992818576339036
0.000205788984075572
0.0001726740199819134
0.00024227017520674966
0.0003711292880068803
0.0003389625608579291
0.0004114761074067786
0.0002907070180199605
0.00023844229851928043
0.00022852282323791484
0.0001803435215347862
0.00033759276394820765
0.00031742230188809795
0.00019544230979199635
0.00023043706028877867
0.0002065661542635735
0.0003484930256313075
0.00022620391845948998
0.00022084326164658406
0.00022454575863717788
0.0002790859315884974
0.00019082733898215977
0.0002357011781990581
0.0004258742064631273
0.00047130651289695045
0.0002653522546522495
0.00034092909269083386
0.0002496989059254009
0.0001779202522159798
0.0001660901796710087
0.00019463076669718973
0.00019509128596593517
0.00021207404777054753
0.00019202711613061288
0.000249752832883568
0.00019538332173076075
0.00027968813931124797
0.0002870069554935407
0.00018238782076118298
0.00012925816455150888
0.00031556822399882053
0.0002916883421106925
0.0002504383981742472
0.00021636240335320977
0.00015422916122284115
0.0003701191642841335
0.0002771350371556676
0.00023211299326164576
0.00022560400128202477
0.00024881544078153323
0.00011447828377808206
0.00025237870025319597
0.000300895947314695
0.00015694370924262737
0.0002595736549778171
0.0002367258986585191
0.00020958286691427996
0.00041656562031824163
0.0002439138052484351
0.00027049680471299465
0.0002153064605120201
0.00023745658189379263
0.0003759443105600796
0.0002698532781529892
0.0002147571327877352
0.00022476790796231144
0.00021648696000246077
0.00023085453104256554
0.00020771278040008638
0.00022539474043393578
0.00025259387730006496
0.00024101422230088146
0.00021150031820566775
0.00032355610351366754
0.0001808842629605493
0.00038721669185414593
0.0002235182507454672
0.0003353522622216061
0.00026021014577180487
0.00022500375215360715
0.00018147919275358522
0.00023518125288793907
0.00018254379962407257
0.00024414941712351567
0.00023867915733088372
0.00020178828262308856
0.00018480486461003635
0.00022660447378741757
0.000198561802785367
0.0002219554263949989
0.00026961134377680656
0.0002109997712675858
0.0002192211489912641
0.000182651463148483
0.0003925949586474385
0.0001985319233168584
0.00022481381954048886
0.00023981136000926983
0.00020995831929961965
0.00014292251303639844
0.00020078458362135501
0.00021492187055258832
0.0002615174067483452
0.00018991505061888097
0.00020583289527419257
0.00017998221838036406
0.00040021060361957703
0.00022356916602105412
0.00042736627210679574
0.0002810443007109986
0.00019080467030379284
0.0002602565699994579
0.0002775452207977686
0.0003040302828338131
0.0002763220873473406
0.000237627009909411
0.0001945383368498591
0.0001719935077582592
0.0003175779599375526
0.00032528109890162324
0.00026834700381047483
0.00025518910869143607
0.00024166933949612
0.00021515232361829492
0.00024303167217122542
0.0002459383681462967
0.00035632801525088367
0.00021569625291526217
0.00023928058981405654
0.00019053458166238047
0.000319528515079796
0.0005517866802570244
0.0002639487515041413
0.00022129381663213408
0.00035227663238652276
0.00018009576823270316
0.0002225342304303056
0.0006322619827448936
0.00021468826804056575
0.00021881001488485103
0.0003430672720950882
0.00022511389499532556
0.0003645652020106821
0.0002040319000446107
0.00020907772690506428
0.0002841059845025059
0.000243713571137227
0.00020441617482714586
0.0002202750888718738
0.00022874475598314565
0.0001937596297137814
0.00034234139757375795
0.00020550303425539594
0.00021596698113886525
0.00019018430477659449
0.0001905205776653026
0.0002361428159097317
0.000161503038356825
0.00025481630474860796
0.00021031219725642857
0.0002641477928427953
0.0001856540534710236
0.0002875038550764787
0.00026549695730666134
0.00017214180452850857
0.00042431691219418406
0.00018790818277982709
0.00024967136935254755
0.00021701564160885907
0.00020874064132908745
0.00019138231016879254
0.0002462190634276109
0.0001984362421460067
0.0003925989631066688
0.00017942717050486166
0.00022286089712654416
0.00019437960609366221
0.0002494264398623047
0.00032953878024352744
0.0002064024911683143
0.0002112178603482977
0.00024751079229885634
0.0002837432093819666
0.0004548227309276249
0.00021884851142142434
0.00013458834018512605
0.0002433339623754928
0.00025131276882633957
0.0003005259236237085
0.00032007444561624686
0.0002371891209331987
0.00042123654669747425
0.0002381318505317966
0.0004343553845339585
0.0005689381671592846
0.0001776643342860027
0.000300480392631368
0.00024653839031370863
0.0002145652760427436
0.000275391045813869
0.00035244961674544173
0.0001896743177092129
0.00023205880662978968
0.00026131456857382687
0.00026144318942339975
0.00018160954865587673
0.0002559746487229346
0.00020326254562991848
0.00025125402511534114
0.0002669495680722364
0.00020643979944082966
0.0001645428815420946
0.000504495589791233
0.00023552204028838306
0.0002044153294410023
0.00023656246653351226
0.0003036899186037183
0.00021898833930584474
0.0001571121065655184
0.000296296821058871
0.0002168574462545895
0.0003070771285374281
0.0002801375932371565
0.00020984527240394267
0.0003484925359104475
0.0001897196483009177
0.0004029877662646396
0.0005883025400105307
0.00025597735879308314
0.00031169915241585915
0.00023865134427494461
0.00019294835283773543
0.0001948530915471507
0.0002740938142140595
0.00022788697524993434
0.0002942220604508156
0.00020922816172759632
0.0004135659697597711
0.00024094326141413443
0.0002469836431441463
0.000284649047744127
0.00023480874259745367
0.00025501172604623835
0.00017641619181797585
0.00024296805083853307
0.00024225961233261372
0.00021062673390922668
0.00022373288324967336
0.0002323510216090278
0.00027633006613728427
0.0002150033950311346
0.00034548508354266473
0.00022766671015580576
0.00038483999068549126
0.00028831417878807193
0.00015089523128870071
0.00022600429598743896
0.0001677181149402405
0.00021840794732943218
0.00016010860188708667
0.000192804187963046
0.0002628991490360224
0.00024854121211536766
0.00024903574071751433
0.00028676608893775737
0.0001995819328440384
0.00022713022774857098
0.0002531639418577345
0.00017106865042974844
0.0002552067343660486
0.00021517852365009714
0.0001884619124442817
0.000291791626667676
0.00017594407969271505
0.00021591369389655982
0.00025968292127162416
0.00026862332205001774
0.00020289871982788525
0.00020373862838576974
0.00022005912066799644
0.0002843559776664963
0.0003040855804516255
0.00032553509000596325
0.000275282678799021
0.00020057659875799403
0.00024184304601617052
0.00017463733340561928
0.0002156849662489396
0.00017712332597698955
0.00019964564831489293
0.00036422664343203247
0.00019044253076258555
0.00032094301795821783
0.00023322307601550152
0.00032331257368260725
0.00021453390463640215
0.00018849660425915272
0.0001705022835867946
0.00021174079040558582
0.00023780845996106045
0.00016533735269442902
0.00019449792243587063
0.00024223574410368046
0.00023514766562209846
0.00023131475899350985
0.00021847963692223264
0.00022173904851828676
0.00020268937889008048
0.0001239270255216937
0.0002359597774555069
0.0002473930383974315
0.00020781248430250176
0.0003120110007161169
0.00027824237194511674
0.00024051131054173775
0.00023340629065739986
0.00021569382748131717
0.0002729790668325444
0.0002543522048029939
0.00025679684921649503
0.00018440533030741218
0.0002226123959934545
0.00024568616419845746
0.00021413591303014724
0.0002292653562298512
0.00026831462783991024
0.00020921803222708843
0.000288896829046545
0.00019378156823187656
0.00032848979276644505
0.0002772836884975365
0.00029880619772411896
0.00025070857675636043
0.0002339927897903768
0.0003943195302946344
0.00023393888446725106
0.0002094474849785567
0.00032931590717579336
0.0003676575028358751
0.000298595993327345
0.0002428344497316724
0.0002581183194580354
0.00020627023663897755
0.00017449776130065283
0.00022955929669321514
0.00020475784658146608
0.00016896899818903146
0.00022215214835980278
0.0002368470339687863
0.00025614444007284094
0.0002719113628522595
0.00018104090508435147
0.00018981670156978316
0.0001784352806408514
0.00016548956635113656
0.00024763347952385837
0.00017341537558012262
0.0002336495650944782
0.00027726592633783604
0.00018947745688268947
0.0002528815208527656
0.00019581563291268023
0.00024822484424351593
0.00020059254825473773
0.0002771482140276357
0.00020640366078781606
0.00029947922042413886
0.0002535921415714508
0.0001857391453826159
0.0002346099388305086
0.00015830764894742585
0.0003418161087263708
0.00016848879259249484
0.000341100781571343
0.00023935292166387683
0.0002867068964649293
0.00019495593590245313
0.00018935409544128498
0.00028649818461109366
0.00021479761555661257
0.0002669636247498456
0.00022171347728810743
0.00016896939237656488
0.0001657783109437131
0.00018876551621354755
0.00021142043850549275
0.00023205710745150077
0.00017947837701321807
0.0001628271240477058
0.0002641460466023922
0.0002418243634933495
0.0002519829667226361
0.00020741956991962866
0.0002532367565301723
0.00024279810525643027
0.00016800021170158583
0.00030561203039879993
0.00024079481155690914
0.00026309500136227875
0.0002320579971799213
0.00018060313795051737
0.0002443071531496227
0.0004519816753713384
0.0003981322391535624
0.00021629314546154106
0.00047882632102666804
0.0003118403287618816
0.0001871389303050668
0.0002821887907166857
0.0002463000297292872
0.0002173476278650899
0.00018946030524388897
0.00029018843291024897
0.00026739584043623387
0.0002598595036028531
0.00016069095217313847
0.0002709122694709041
0.0002667709233397642
0.0002721057661600747
0.00025452343527456936
0.0002594286361942121
0.0001682607318116797
0.00023383834942912959
0.00019286766367752932
0.00020375954668309473
0.00019998164250918483
0.00027275598025456064
0.00021482820475515564
0.00022324482401751315
0.00021163409362539746
0.00021419641184693762
0.0003404528608570438
0.00017767009556735345
0.00018453295020615145
0.00039004283828687915
0.0002655600798836882
0.00020822006621756716
0.0004845359838530672
0.0002769993223312127
0.00018010837063200477
0.00021994738872611666
0.00022514490237420483
0.00021248015469281343
0.00019946628493487347
0.00024726903249099773
0.00028927087211142274
0.00023019098245504567
0.00024771625180373665
0.00026083163243348703
0.0002497262390211609
0.000182244910516022
0.0002590394387217331
0.00018463248644089045
0.00029311598661290687
0.0002058252731569493
0.0002330607302049844
0.00018360760483344097
0.00018029101483960406
0.0004295896453420079
0.0001975438209269651
0.0002103824613464299
0.00022498287900598503
0.0003071943288130615
0.0002113762424057828
0.000319640685300598
0.00020503847900471943
0.00023368221233734945
0.00023471699778419654
0.00028529852296406254
0.00034000524179085675
0.0003238419564696944
0.0002607097476241805
0.0001880746142257787
0.00027134471069337435
0.0003047155724695628
0.00022039863392323033
0.0002066507996611934
0.00023476508071850432
0.00020227831811748005
0.00036127210061430616
0.0003147643700020482
0.00014708947393200948
0.00021040631520457536
0.00019576056183890394
0.00021094093680716126
0.00021858415650253656
0.0002626124552294988
0.0003345545448956279
0.00038599104890069043
0.0002461775859289963
0.0003900322771343171
0.00020028028485891136
0.00034270031461124866
0.00017682146623988092
0.00024151864888182327
0.00025073375327319214
0.00024709323583227405
0.00025645237327677424
0.00020704515768208396
0.00025531137805802703
0.00022304952468057843
0.00031525409109791404
0.00032289478716242753
0.0002349078652499971
0.00031597256650317865
0.00017421391138552233
0.00020927017781555233
0.00033162973838673306
0.00015000852314654142
0.00032661503607205294
0.00016420059652235225
0.00032621346072463564
0.00024964657129822527
0.00032813873097297145
0.00019283560355604922
0.00020612752652658095
0.00021793232944856034
0.00038243840852703975
0.0001916071353165303
0.00023262024223000193
0.00022506680596212918
0.0002433852233568865
0.00022359771194932723
0.0003680081820856337
0.0002891370360604355
0.00021975612315158435
0.00019438731555810072
0.00027514030699341197
0.0002915996666352957
0.0002272866224987739
0.0003107453385084362
0.00029146580547051497
0.00017485723470496916
0.00028128707772685107
0.00022181217119563956
0.00026839179487773176
0.0002658821036698711
0.0002079501953718727
0.00023026887305314383
0.00023867439205075734
0.0002769462534031633
0.00020306031515258244
0.0002081218266331676
0.00022092058355900507
0.00023647389680859224
0.0002137273376395394
0.0003343029258422308
0.00030942647298207724
0.00035081046230388865
0.00034062939965433264
0.00025017395724912157
0.00020930312377356145
0.0002165135197059777
0.00033733209717274297
0.0001716615473487337
0.00021554814597692947
0.00015681588687460098
0.0002510944684207764
0.00023979628753770916
0.0002817570989274056
0.0002335978276875526
0.00023926890112759035
0.00019131559723713272
0.00023163431776136031
0.0001880063706071319
0.00022400400685523326
0.00022593005701165102
0.00017230737704816826
0.0001789966766482935
0.00027745809180450704
0.00019116764726223096
0.0003068884462826829
0.00021324191758853456
0.00024363883899409763
0.0003214029192739066
0.00022824690233327167
0.00015888675068814108
0.00027304080649425663
0.00019962569957195417
0.0005952335949695727
0.00024028168584190558
0.00017633095780606294
0.0002867148572985876
0.0004130444683450909
0.00016877117801315626
0.00015876964103161623
0.00022492037706745976
0.00015707477542418823
0.00018864841292363645
0.00044253842691213696
0.00021910348839719596
0.0003070988460941698
0.00020831238431927404
0.00021472130614126546
0.00021699636695971783
0.0003696792493665281
0.00020058874044386768
0.00023803033698540564
0.00021185321084071695
0.00020454432622418563
0.00017516555529634354
0.0002138908352263599
0.00026651097796535157
0.00020490736306960644
0.0002912723183554342
0.0001769172377005209
0.0002224875074938116
0.0002177929320283411
0.0002518360697980823
0.00019805907907904062
0.0004100784257794772
0.00017086206689993284
0.00022955048359961963
0.0003317656360342324
0.0002373812392942001
0.00026285516047227776
0.00022121631353931722
0.00034496867395944665