# vtk DataFile Version 3.0
3D Voronoi Mesh
ASCII
DATASET UNSTRUCTURED_GRID
POINTS 25659 float
0.6869323323771204 0.0 0.5091123647277955
0.7227929234515885 0.0 0.4361362519991105
0.7334307906242168 0.0 0.4504122253608214
0.7349442683841153 0.0 0.4542494026224548
0.7451963595831447 0.0 0.5080431019351739
0.7405742698668272 0.0 0.5195275237779975
0.7172512501899927 0.0 0.5284676879762518
0.6697734506514087 0.10168804863499709 0.46048471846154093
0.6828041244371635 0.11138612860296898 0.4569711734708906
0.6964952108489527 0.11702410119393429 0.47756964907881533
0.6857828676673171 0.1045405882163462 0.5045306135310156
0.6806070119184896 0.10154849936758417 0.5013365271647149
0.7395768457995209 0.08440802707231099 0.5053916223616969
0.7389526074006886 0.0835955618469029 0.5071025750842433
0.7069507491736137 0.08824559507290448 0.5186437860531744
0.7185541994795906 0.015540841653831416 0.4295290011451724
0.7513285225355414 0.021321631469342673 0.4731701986281008
0.6613483467577672 0.07250044769639866 0.4901111736897877
0.686334571874921 0.07635921441250156 0.43548200005912063
0.6834212740530847 0.07987723350286928 0.43796220630662025
0.6656688075321562 0.09488220646120579 0.45938060490089017
0.6850127543579528 0.08233674967875701 0.4382846235590597
0.754854846355216 0.023940311523693573 0.4793326220877499
0.7547129854902779 0.023116077470085376 0.47984733664745033
0.1735168494479187 0.0 0.3330261076939003
0.18956998481188853 0.0 0.32078465534932676
0.1998575441955135 0.0 0.3357924651441677
0.19556035458643697 0.0 0.3401546723931768
0.13987039482323319 0.053345816717350204 0.33687923054876256
0.1369416943466341 0.0913741745883053 0.3090212553487557
0.13737186592304404 0.09188809276693603 0.3087702099606943
0.14962062059147255 0.10441514324942527 0.3031215987918772
0.1678836000719634 0.10435949201565854 0.308037676003943
0.18490485536949214 0.08945456693363003 0.3231947949591904
0.17300603766225522 0.05145553417035503 0.3470727499973463
0.21252043240479493 0.02252016828823119 0.3159452315413797
0.1903936288110616 0.023057966512923203 0.2827508503931665
0.16866039162908322 0.10533454319422474 0.2911769374475073
0.20099843117896646 0.08093986184818547 0.27837771400624706
0.21323359887488344 0.06914418055235451 0.3007440215295082
0.15907084242142727 0.10537213910202468 0.2884493434140094
0.15561341529311742 0.08099188649141509 0.26535454440187606
0.1617075662120755 0.06788992593564994 0.2552335156409108
0.17311005173545885 0.05881153098130831 0.2502883207209542
0.17640985847408736 0.05736140356432887 0.2499241789429467
0.17607768345819805 0.05525639180761083 0.2501630153744284
0.17876763607042945 0.04363930030024617 0.2582283310606284
0.14179845939668623 0.018143497628878513 0.32777998720776463
0.1330433717201987 0.028875033034103454 0.327912724063198
0.1300004106944519 0.056141300414448425 0.3050272866647399
0.13262181435421028 0.07921398193781151 0.30170282821925476
0.13690609507134902 0.09135681615695113 0.3089199494406763
0.4813732744047162 0.09331364942862069 0.20149839331617753
0.4378770976356868 0.07804811888826978 0.20826116768378294
0.4216124596064111 0.09120794853428342 0.23462846718785474
0.4277497864217501 0.10026776228071807 0.24239926380554208
0.4447251738592826 0.11336746157346622 0.24878329682906092
0.48399417611060974 0.10165922256216156 0.21047276967394066
0.4314543945282089 0.07924089229815488 0.2009168045004774
0.4832989861824483 0.1062537318219937 0.17151435068377077
0.4829430357726756 0.10631196455035617 0.17112637376777423
0.4558984350227106 0.09979846295439003 0.16812289711475428
0.4208578350316691 0.15665142650431882 0.2504688440589294
0.40660748155074367 0.14062959815699425 0.2442413622975444
0.39272537082433273 0.13573967379725663 0.2329017744381825
0.3834468450726182 0.15338646459891864 0.21503271175592523
0.40771702788534064 0.17412680221070526 0.22885988210241243
0.3940157576426329 0.12802370684479442 0.23068958818430377
0.39065163061966524 0.09926454864875937 0.19282522826203227
0.3903719386570274 0.09980957384390401 0.19229825995971261
0.3784798145630471 0.15159397576826641 0.19543347858241764
0.424657527798397 0.15466376213337832 0.2510477196999341
0.47016699117252164 0.1649303486615554 0.19496291144633904
0.48951747251654365 0.12615550012220433 0.1922667569252005
0.45543371907126173 0.11871513100355063 0.14642109274905757
0.43897887765233595 0.17956909945485713 0.16733920980412947
0.4122683783736259 0.1760365084383672 0.15788241472749281
0.4221210828702267 0.1545641747478302 0.15170706710774845
0.445098008159085 0.12307715009868739 0.14519257539053104
0.40550912746297435 0.09597645574427378 0.22409907398922388
0.39431518310815444 0.09475942423206518 0.19668215441095804
0.4028010695949059 0.10536735205276072 0.22757166824581848
0.4106649620148488 0.09471072912963778 0.22862784610920983
0.414002089878412 0.18323334325050328 0.2068941420831372
0.40110616868191834 0.17670495627628702 0.16882798497058987
0.4485214786683487 0.18225013645512375 0.18057427555410227
0.41942693817041776 0.11806009770420535 0.1604699188613344
0.4602985695390285 0.11453274370349072 0.14946139516384058
0.44152138666227264 0.16147716111241658 0.8221304012918427
0.45500220086563414 0.1391101645237403 0.7898445104060716
0.44910549388104093 0.1413399289755852 0.7778443180993038
0.43388143092477977 0.15267980144020035 0.7661695122615663
0.4111121903082948 0.17984591139713033 0.7840028352632507
0.40808295014110785 0.18603051554665162 0.7952642384973507
0.4111388908281581 0.18949108959252675 0.8174466031651562
0.41206976990054206 0.18931600951471086 0.8199528207403739
0.4835687628352643 0.14329263939435494 0.8333865148025805
0.48181102584853386 0.13802557078404837 0.8198332863851616
0.49326847115480466 0.15616661658943287 0.8424331298742875
0.48930773982112297 0.1674285870826834 0.844981237248284
0.4678837495525929 0.23619902477656055 0.822224703753184
0.48301853883087625 0.20396948417398517 0.7622157428871381
0.49757379912620175 0.15420884986511282 0.7918143287011782
0.49798243579679125 0.15107222522847996 0.8007392350213575
0.456328957116672 0.24265831788891196 0.8189274424385572
0.4228500528371073 0.1980938962205944 0.8279174661950532
0.4335074495271447 0.16623319709717194 0.7595941711390417
0.4657556487840657 0.20440954059308633 0.7548603031057574
0.45314385618899455 0.20500279597610796 0.7603325201106969
0.42378473271237266 0.17888627195228302 0.7666574987980673
0.4508864486229593 0.2420416301759369 0.807471398695867
0.46020939389893273 0.22306681848355436 0.7728835087954214
0.4725176649222597 0.20854037498347322 0.7557029751940497
0.41214926107638467 0.19763282073143384 0.8039286692305548
0.3454601038814815 0.8167851044037302 0.13091200393022231
0.3529894719165721 0.7885846226597764 0.0899079799708776
0.3539521991484788 0.800616225026843 0.07590977832233936
0.3479904097541873 0.819483407518568 0.11031536889356702
0.34540705962283436 0.8218095985460425 0.12849892140117733
0.3452369990505581 0.8181569326610139 0.13182678327907946
0.4104467804072354 0.7702649257996165 0.12116647545608737
0.3918586088373967 0.7642183479883294 0.09012374639641937
0.352623528948738 0.8275849453253262 0.12034550737567407
0.3956105662911359 0.8325460806232686 0.0980301990540643
0.4344330478971526 0.8100393124438146 0.10194132954317216
0.4341372586119906 0.7997417790149701 0.11124674789654503
0.4175959181053967 0.7829907706153619 0.13306822552956613
0.3533902614140604 0.8280706910773057 0.1190349665422158
0.39112359604713626 0.8339639951615112 0.0959129470077482
0.3871141298340405 0.8026863463800513 0.05075952264651255
0.38882028598898033 0.8060224323540802 0.0544820087113041
0.39248608619155867 0.7983013934063037 0.05191691146900673
0.4047951629740857 0.8032294109888442 0.06519351069782477
0.3947195507755043 0.7688540192158358 0.0830141908821543
0.4292866418966622 0.7880484285783047 0.11523488857326655
0.4189816595128571 0.7753465207458088 0.12802360424142212
0.3655700143754791 0.6702311388571699 0.7829681032815718
0.36564856648735566 0.6702683996202818 0.7829245133569136
0.3629450361194803 0.6666889498414086 0.7528079818691554
0.3256065354142064 0.6453639410703751 0.7237884732986519
0.3215402688589102 0.6432957929336263 0.7241270670370688
0.3200653433546222 0.6426378183798803 0.7255187797459538
0.3691987618870528 0.6842854919372715 0.7881079503086925
0.3631978734224951 0.6907622907961741 0.7968456935858268
0.31999904578851085 0.7085630661640068 0.692989321046049
0.30304580407246545 0.6764528822203486 0.6887439229777345
0.30379052587470756 0.6582686535668675 0.696733004532879
0.31248471696634195 0.6520870721935967 0.7079288711610017
0.36757572393061927 0.687825695085622 0.7490434695742519
0.3259741086291337 0.7072778387577674 0.6995037749368286
0.3062717389917395 0.7246440042067126 0.7242484973687974
0.28906354688429053 0.7080711789772136 0.7331482936920872
0.2879783899251132 0.6994221458631181 0.7435617669909919
0.2875687362248865 0.7042773150178089 0.7423973339083566
0.3203201661064438 0.7226382511957093 0.7729149981342749
0.3305678358457781 0.7096452628898008 0.785348121166908
0.3569209073050458 0.7020461917560773 0.7382616931062221
0.337069587477744 0.7229401275612625 0.7751528237065639
0.3251817612397324 0.7275716009238832 0.7694960673770485
0.30107119393569537 0.6488377468071161 0.7151457910148304
0.36776599010551564 0.6885455602173853 0.7494369201079543
0.3557224573861048 0.6995048237731776 0.797603481224571
0.8217765400660458 0.5645329237094339 0.8677923137260002
0.8365493831710084 0.5395808190397401 0.873790216652398
0.8266304691732599 0.5416948622868808 0.8470821243609616
0.8130134764726702 0.5599926298070187 0.8342686546965439
0.8130339071398565 0.560202025119059 0.834029356959582
0.8143314334444844 0.562938534057175 0.8303602973276708
0.8346645154069159 0.5988213060846522 0.842016632423473
0.84951616079973 0.6227467044000531 0.8730940652159513
0.8298646005855853 0.5873399653793778 0.869007191818973
0.8873271837658017 0.5902244903442163 0.8080897306758065
0.8792021928121578 0.6198058611802387 0.856908231261216
[...]
CELL_DATA 4000
SCALARS volume float 1
LOOKUP_TABLE default
0.0003603540694473003
0.00027642640030778483
0.00046265891359146703
0.0002851839083508578
0.00014291958276141836
0.00019205925935444294
0.0004157933193358716
0.00012081199993406939
0.0002429466801588695
0.0003236490410730074
0.0002013311184934437
0.0003570725309297698
0.00015369221540947623
0.0001085527537728876
0.00030779559262657724
0.00019488925959153648
0.0003242727167524352
0.0002793193846878204
0.00023267270737478108
0.0003021168853244023
0.00013021587576156327
0.00014613621376074494
0.0001667996270881802
0.00011241855161475093
0.0004490133004947322
0.0001477374333618974
0.0002296742060182357
0.00019523225368173468
0.00024965417406572216
0.00015812004345247443
0.00010553936937062066
0.00021020837607533697
0.0002461975497302417
0.00022121579351116292
0.00020536834799504005
0.0002277029753345814
0.0001785953792792778
8.690051045196668e-5
0.00015441645184272902
0.00032302879684369134
0.00021241394871001734
0.0001422896976776394
0.00037189340065921374
0.00026846411430353777
0.00020899389207051848
0.00014376442897240838
0.00046297994601523606
0.0004510022618657597
0.0003439814625271805
6.33696972573951e-5
0.00033407791180273353
0.00021767243738444474
0.00016706055813036307
0.00015433180962390024
0.0001937033880303971
9.22706052935631e-5
0.0002675889535200248
0.00021135461697708828
0.00013204381090958566
0.0003742434187587418
0.00020115543944171772
4.64757938811473e-5
0.00037401991896139023
0.0001953067662290953
8.926593060085886e-5
0.0001838324769725947
0.00022519120630356475
0.0002920903950171699
0.0003719454124827473
0.00023102290875025503
0.0001496576128976461
0.00013963098662662108
0.0004527774081624205
0.00021385676115912055
0.00035703802318699394
0.00018376306821215975
0.0003265713188137834
0.0001264961473257838
0.00013240546185722224
0.0003028832651910137
0.0001177550306170484
0.0002992337173148638
0.0004725598004238965
0.00028757801325709467
0.00025934089418369366
0.00011356199313307543
0.00024082104968793465
0.00018668831719678873
0.00017591028725501924
0.0001878655249981821
0.00044019177509584193
0.00039584755746625546
0.00021339539927088262
0.00032594933063684876
0.0002662764165762233
5.044863815240723e-5
0.0003364238728930251
0.0002943973692175391
0.0001762285187721833
0.0001512114479509555
0.0004921262326687436
0.0001538693531008625
0.00014889025233624223
0.00010414143898880278
0.00011971377186750642
0.00023704354669208655
0.00021830748894123794
0.00017204198227686437
0.0001350950425909985
0.0002486201258945673
0.00017631377925491403
0.00021181874237108286
0.00017880676756111622
8.322520435442865e-5
0.00010883292697847178
0.0004391566618090906
0.000492541838184476
0.00033381746500757
0.00020392753641615633
0.00024806885996914234
0.0001952610337064092
0.00029206762383944947
0.0003730047857366504
0.0003185335693260892
0.00031597917193156174
0.00042584201034051095
0.00028249768939774743
0.00020662934237470194
0.00010947269370926744
0.00023736208635767489
0.00027663541058524783
0.0006414911187986996
0.00020317889909725933
0.00017450945814282982
0.00015230906491234034
0.0002995153038080784
0.0002781229975683236
0.00017261189826979452
0.0003066301639836533
0.00011477904093428133
6.536642127820017e-5
0.0002697598874777366
0.00039593052274059274
0.00021835207801020742
0.0003445428529528361
0.00030180012067075937
0.00019511058362043322
0.0001815774718084911
0.00025452840578914086
0.0003008179412055981
0.00040931328506834124
0.00023609335815180337
0.00046525869866055977
0.00020083108116707266
0.000277011153231418
0.0004260354414790669
9.982325334924461e-5
0.00021359048215132645
0.00017808147675007664
9.721633934616227e-5
0.00023661349052306023
0.0003284039431087781
0.0003856409167685966
0.00014266343857684516
0.0003135401971208699
0.0003896612568562689
0.00039923120275841276
0.00020395903423089178
0.0003924400951012449
0.00023184832703275826
0.00029411301598505625
0.00024474734431501613
0.00025375092184436724
0.0005530728390488639
0.00030447331292185535
0.00021854663633867597
0.00027157333150486365
0.00023104874669106225
0.0001754921320443307
0.00035694347419043033
0.00017822689081320851
0.0001488979682446731
0.00016381691439022918
0.00024408507627415066
0.00021637363638644797
0.0002878938599900914
0.00034648397932861047
0.00019038071807215415
0.00019732981393540662
0.00022277129876618554
0.0001741314034791585
0.00017849208152995776
0.0002325951321347428
0.0001595187048150998
0.0001868581274861098
0.00021712037138480657
0.00024736674714847704
0.0002930438532848029
0.0005061923228256054
0.0004415674979365883
0.00028535435715358414
0.0002364586936781636
0.0003191430565745607
0.00028524467755929684
0.00040231056230131333
0.0001777175785069186
0.00026550966905177105
0.00028962991118935125
0.0001399304743929359
6.961458658871001e-5
0.00027699585885202925
0.0001452340621454868
0.00029799480398792414
0.00015863051544216371
0.0004445883171089395
0.0002645791812583896
0.00017752571524141912
0.0002677128385845313
0.00016922249477211357
0.00021241295606531094
0.000172343335448534
0.00021233601412673646
0.00023811989232231108
0.00022862590999858022
0.00030778881274930343
0.0001730671783313164
0.0002781460107712972
0.0005150615053511029
0.00010093474885667356
0.00021852839962790188
0.00016285546338730644
0.0006970334232935772
0.0006274828195197502
0.00016622837094702083
0.00013415183952132222
0.00024118375105123294
0.00012940457543565858
0.0002193220659578419
0.00017176744405265898
0.00016204699546337056
0.00027260798860552894
0.0007912975730824311
0.0003697779470822601
0.0002370367885752118
0.0003912942609337803
0.0002013172263195201
0.00010899893537596324
0.00017984810608219175
0.0003014763528335733
0.00024892974831204514
0.0003375401522922967
0.000368950214822948
0.0002790552402788823
0.0002175249231442665
0.00047163321473165005
0.00015782412609326673
0.0003848381056475333
0.0003500531356519776
0.0003098144881847746
0.000674220688060471
0.0003491352661908128
6.624345703859791e-5
0.00025115779568429846
0.00012147974791487717
0.00030108354636236307
0.00030812857412824117
0.0002499161703443521
0.0003390521650739201
0.0003870228410315443
0.00025242269205318096
0.00045649253997999265
0.00036658775263351707
0.00039796376055484364
0.00024426209811874195
0.00013966701730151935
0.000231321303408553
0.0002880881546447515
0.00026088202662549916
0.00021226820433182486
0.00042247624962103296
0.000171234617285969
0.0002549791170746227
0.00025530770233143756
0.000224781955893101
0.000294144411013099
0.00016660313342690012
0.00021088850419146687
0.00028817151245529347
0.000679493129555175
0.00027457546165094983
0.00020857773603383543
0.0005452585619472721
0.00012451648580005743
0.00012036992401163608
0.0001357833464784302
0.0001912409228070386
0.0001952174820332838
0.00011025721208913643
0.00026643832082968907
0.00045747948695911713
0.0002644282317758443
0.00027964308214479535
0.0006452956625905185
0.0003015886293589867
7.973247277965496e-5
0.00033476551389176144
0.00044795855961013935
0.0003098945397769376
0.0002518717333868448
3.650945114411831e-5
0.0007353754563244998
0.0005054502016585907
0.00031732354355849785
0.00033983680609599143
0.0001658341439602995
0.00013041331327630863
0.000243381797433801
0.00033345131815051756
0.00016366221580747643
0.0002990476493454834
0.00010371743414154996
0.00019476150336840984
0.00043887645300248214
0.00046800529619042176
0.0002773280619612439
0.00019838541876785536
0.00026661222574020127
0.0001550382485611841
0.0002735089689903141
0.00010700522795439922
0.00025718731598482866
9.064159585708271e-5
0.00042977965856830854
0.0001644801246747473
0.0002964667600464366
0.00017233292216688723
0.00024206697205385108
0.00018717914364134883
0.00031381750894495024
0.0002729744478142996
0.00021040682495266142
0.0001977173932408345
0.00013162961254246033
0.00037626563001886106
0.00025761116226101613
8.11570199048277e-5
0.00021234122293470274
0.00016954232123225196
0.00019034727482404465
0.0003584358995523287
0.00015300748422243077
0.000237089016415993
0.00035516779493680923
0.000240096495966467
0.00035177729023041956
0.00025419884018102173
0.00020851984541080812
0.000406564460982611
0.00025170845205358186
0.00040408018453974294
0.00019325616402558483
0.00027728093466527283
0.0002027628026090616
0.0003416467502865923
0.00016924546025278816
0.0001831377728435584
0.0003219469420393884
0.00023491683658265056
0.00012926339991153527
0.000264184094954226
9.275167291679242e-5
0.00034849337108493943
0.0004028904716962941
0.00028139494681217697
0.0005060584382173256
0.00017021813127260688
0.0003520392008102156
7.462597881962435e-5
0.0002503867343465147
0.0002918714244669137
0.00035087193793006776
0.00019337198052598613
0.00017703625633552677
0.00018574822163303203
0.0005653428684362408
0.00037029996981162916
0.000191617601529334
0.00030458464203432875
0.00025006922996191264
0.0002807046966723286
0.00016488951248277707
0.0004020042609734603
0.0002338973728697267
0.000190784624425844
0.00014836967188045102
0.00039045017586770503
0.00034956094101021106
0.0005110229057862442
0.00022169195473991494
0.000254311659828449
0.00011258992752955359
0.0001044449632788912
0.0005895963034829646
0.0003653557635374827
0.00016135206148097946
0.00015828877205244495
0.00031553577787087197
0.0002455295587406993
0.0001590825614085916
0.00018975019522528305
0.00016041589709411328
0.00040000728627162226
0.0003199436675936942
0.00012718919163183726
0.000150432196714514
0.0001295247703403157
0.00022882512213649113
0.0003556847407389718
8.113059523754115e-5
0.0001489856284189057
0.00026124105209717396
0.00020906007078796968
5.1907568485999705e-5
0.0002802609578496745
0.00015678544411963462
0.0002891951363812226
9.140220056942156e-5
0.0002304263008951317
0.0002917944283817635
7.606321010036425e-5
0.000500677560048239
0.0002060308962051646
0.0002654297933014566
0.00037168248210185884
0.00026841816361741874
0.00026651136816479643
0.00026131966210411094
0.00013374357528729932
0.0004305031860323765
0.00024266831045703077
0.0003164910509581791
0.00023311557473746334
0.00015823761794115022
0.0005929956924149118
9.674693926218467e-5
0.00017522144851606815
0.0003029202390300779
0.0003095825159525211
0.0002867365689553211
9.503818626836488e-5
8.047265920199511e-5
0.00017713381744556423
0.00015787436536317885
0.0001541880148535549
0.0002861035472665328
0.0002938784539172013
0.0005912838830206265
0.00016996518367978498
0.00029331001677902296
0.0003958085639577226
0.0002158278342246515
0.0002452359098322329
0.0003133005512885992
0.0004201331862048415
0.0004078565566143738
0.00033424828958447455
0.0001997079440042314
0.00010206106400517075
0.0002958695590387726
0.0004980030492483807
0.00016377507988069842
0.00027668809095315194
0.000195956458414488
0.00034358106117151927
0.0002806478027094619
0.00012211090185277693
0.00017736523007196714
0.00030138812713539074
0.0001830150754341662
0.0001908333730700417
0.00028927138993488583
0.00028534848080372056
0.00017711278762844374
0.0001261469558428549
0.00032825410558784125
0.00043843012767871543
9.507553094417688e-5
0.0003993181221267099
0.00020340594869627308
0.0003789280476390839
0.0002053694002202734
0.0002229778777945863
0.0004155259593060877
0.0004514236605147134
0.0002371093485131523
0.00015960830097309296
0.00017763682280015454
0.00027723804094377584
0.00038958233583647275
0.00019042449944473524
0.0004449554186334637
0.0003313013642095184
0.0004078792415678096
0.00034448121135038955
0.00018021082053256112
0.0002926831165158525
0.0003222774643896035
0.00032534596504047575
0.00018758975166690577
0.00017575650197371704
0.0003454094102251229
7.270399717930733e-5
0.00022130415873222807
0.00016401934060836104
0.0002764168374659953
0.00016963915442140627
0.0003967344038335548
0.00020247046064408706
0.0005582499226618042
0.000267672019859673
8.207573416622933e-5
0.0001781170018011403
0.000135300705839455
0.0003281914980777086
0.00012748951860771637
0.00021423127379572129
0.00034922459949785796
0.00015707023283220297
0.0003514524954571776
0.00013797866314688232
0.00021170645901075785
0.0004311405238090319
0.00019522687015540103
0.00022548806113995574
0.0001811119977511853
0.00023852314412798687
0.00013512571791689132
0.00012503924314480428
0.00012221796852364522
0.00018681564224354573
0.0003503877823065803
0.00029597388983745274
0.00020517654959807883
0.00019997040659274412
0.00020032432245737497
0.00024848419201150255
0.00015423004490681066
0.0004288667488389273
0.0001878401701946383
0.0003387469528390039
0.00019503416333996792
0.00026572492691966435
0.00023381796338970052
0.0002792581383687428
0.00019117473937247637
0.0002480382851198146
0.00024243377968676983
0.0003098425120680357
0.00025455412511536234
0.0002582354776634909
0.0002295844462021636
0.00028420785993889545
0.00015429953073405403
0.00011631196018465918
0.00022165141010915566
8.142410713782111e-5
0.00026910993596701663
0.00020944661325347587
0.00033791531457897907
0.00042256135484820194
0.00020981597811344795
0.0002905712087993198
0.0003109655200147777
1.8632357331650398e-5
0.0004052386330000565
0.0002633629273267259
0.0001417739573397484
0.00015046453214692722
0.0003565216281033191
0.0002705636696622431
0.0003119925138234541
0.0001469295670978055
0.0003637754186845607
0.00015008300882677548
0.0002686575932707857
0.00010364564069967966
0.0002572519295349019
9.663510326827511e-5
0.00031419706347863316
0.00023719203050940845
0.00023322183919294352
0.0001441914363024932
0.00015026953693653082
0.00015602224228975688
0.00029579624973585783
0.00041540400351157533
0.0003175007318372508
0.00039597702993443155
0.00024174623184087157
0.0001590499893766676
0.0003306012388828003
0.0004605894159178054
0.0005525046600398416
0.00027731055691626117
0.00016907475244534227
0.0002192770384007431
0.0003426859435687048
8.416049062397146e-5
0.00021962413490325556
0.00018293715267075455
0.0002522221921614395
0.00017390279073174126
0.0001940523186028509
0.0003867523353744672
0.00037290005575212114
0.0002455615452538701
9.960203808999439e-5
0.00013719284347746093
0.0001782972676812124
0.00021754392152523934
0.00024077908452440253
0.00019171206498067568
0.0003540931357397945
0.0001818616523929038
0.00018888808774094454
8.546618872648058e-5
0.00023052965117496444
0.00020122516277553968
0.00023584312845604676
0.00027975729935707916
0.00021607893966987866
0.00020507519554175286
0.00030761634989236674
0.0002192020398923785
0.00019646525018293735
0.00011580941742456274
0.0003050022680966416
0.00024610919948328845
0.00027274782146623254
0.0003553494416881879
0.0003996483338293416
0.0001777142260275645
0.0003682943965586523
0.00041646188607721293
0.00018790466453654517
0.0002889590352379761
0.00015225122865232025
0.0001289468457157948
0.0001405060485083963
0.0003044606771054827
0.00011986163879743609
0.000173368583736782
7.082723940369558e-5
0.0001974308057393403
0.00024693375271052235
0.00014054054023703873
0.000182400267772779
0.00022937304689910968
0.00036083378562050617
0.00022647350250099932
0.0002354827841547981
0.0003724520267775
0.0002340885595417852
0.00022689751126872995
0.00018637513831441742
0.00019899520582599255
0.00014576284976622908
0.0004897788061416121
0.0001444863168212433
0.00029645506580068016
0.0005666586128576034
0.00023407628805952496
0.00011978666827571009
0.00013877977611562588
0.0003167309814402121
0.00018192309822361572
0.00016077914574130973
0.00016603638873621595
0.00046182573530679366
0.00030806661598336795
0.0001671168292259809
0.0003220232123525889
0.00026342351149245824
0.0003665198461394829
0.0005461672870297519
0.0001184114721872685
8.283376317212692e-5
0.0004031204764886455
0.0001999445825873018
0.0002155032787215412
0.0002907450157052192
0.0002707800604816647
0.00021238067414853278
0.0002823222048020552
0.00037426472354157113
0.00032472305727075776
0.0003321416442460639
0.00030324605589345584
0.0003134144301503656
0.000292236064295603
0.0004048424258952371
0.000304525867511809
0.00022442246756857368
0.00023038022182904022
0.00020799183788059223
0.00019964858157694047
0.00028314986688046765
0.0002660801185704047
0.0003322399611051133
0.0003486849964723168
0.0003037054759352467
0.00019956585587409918
9.564261166176558e-5
0.0003306835255832588
0.00032136760732324993
0.0001181995534401252
0.00012865997955865182
0.00021782647424594103
0.0004009247494041333
0.0001289447735972735
0.00025729456148220603
9.875775094111237e-5
0.00012616509407789282
0.0001204222217835195
0.00022450767116762924
0.00011929484036549034
0.0002608055063304471
0.0004535843183398906
7.970311297375236e-5
0.00040022732783557364
0.00015759099983661168
0.00016913083267969955
0.00033326165082190137
0.00038513126563517004
0.0001704409970327869
0.00032765673581811527
0.0002980044824682415
0.00026399860172627383
0.00041024967199772587
0.00031301614117900533
0.0002656874912523066
0.0001861866499108397
0.0001152335585499981
0.00027229149923218535
0.0003405765579577886
0.00025368605882636173
0.000106543490943931
0.0002009335872142616
0.0002531263128091299
0.0002528020713471385
0.00045144656839664685
0.00019994542457266515
0.0004252311358219266
0.0001545227957077853
0.0003794667365682272
0.00030690552541608407
0.00022522954264852312
0.00033327269136141453
0.00019901347858732586
0.00017918360280244673
0.00023344698114308805
0.00016687812572681638
0.00035184411941175547
0.0002961440683808307
0.0004953846436230902
0.0003414364873485574
0.00024876843363244106
0.00021140088618723467
0.00031675896107574253
0.00017521645561113677
0.00023045022363314742
0.00018099226013078978
0.0003794595278882148
0.00012994752698097515
0.0005154171035403258
0.00018464555384731577
0.00045329233149122867
0.0003154788069196186
0.0001636717014253197
0.00016551316816453828
0.00022211547414259603
0.0002574782481250177
0.00026623682515823004
0.00017785612347837737
0.0003943198166190916
0.0003682010679675859
0.0004374714219742176
0.0003721419113857221
0.00023823417994344972
0.00032005013527154364
0.00020259769693117713
0.0001970930524072476
0.00010736470423399359
0.000496407847443041
0.00021054590075556337
0.00021511006858806824
0.0003101833275492864
0.00018443082094998198
0.000389250187705465
0.00014468311974559291
0.00020634208956769233
6.773230376497542e-5
0.00013364643912912446
0.00018371157574023888
0.0002920590992750657
0.00045281577706158285
0.0002643454999049153
0.00035769051500729335
0.00022201916978795066
0.00022561488774731748
0.00026930648477821776
0.00014277713682874242
0.0003499391466404464
0.00017003951882216056
0.00039291780796158756
0.00033828690421582757
0.0001696387432146775
0.0001755462366470575
0.0002462126222363947
0.0003875970653316708
0.0002298406604892868
0.0001476251291102927
0.00037563053379766764
0.0003350328854260279
0.00016294489880989553
0.0002534070218753088
0.00028950988588894415
0.00019854783864796125
0.00013615931961196014
0.0003198809710589621
0.0003163724035085008
0.0003674512711688072
0.0002144509795262904
3.878291904937413e-5
0.00019685739930005582
0.00015314859206288521
0.0002377914091394425
0.00019238749019333845
0.00020869302308955105
0.00045733578479583965
0.00021101454007685993
0.00011249421788974906
0.00039226993525106555
0.0002682085985141285
0.0004349103387295881
0.00020006523416927875
0.00014725274230935513
0.0002938729507876278
0.0006188775342296404
0.00016775238381198246
0.00013102568590102906
0.0004433800469071539
0.00016758564816644845
6.505505212040395e-5
0.00028496612178263345
0.00021559209333109423
0.0003177146695988055
0.0002528268132388103
0.0002198643041240144
7.893768351117127e-5
0.00038087456546303963
0.00014194662726553107
0.00022695634557390234
0.00031085152592122834
0.00011797143509222166
0.00019764783752805712
9.685531315003124e-5
0.0001507108541796123
0.0003426758465097499
0.0003557709700755857
0.000186747070428576
0.0002191029383906097
0.0001956093428411622
0.0002915408755728204
9.850228237965742e-5
0.00036074035839104066
0.00013540579170832705
0.00023745388985255136
0.00016291700227383433
0.00023313884655694515
0.0004199850445087289
0.00034817438618094755
0.00026497024858048715
0.00017540697876660647
0.0004368922839088583
0.00011965018015292554
0.00023718836916070094
0.00018034132802177284