# vtk DataFile Version 3.0
3D Voronoi Mesh
ASCII
DATASET UNSTRUCTURED_GRID
POINTS 3129 float
0.7363647843601807 0.0 0.5715007470430277
0.678959738668244 0.0 0.5683846822193467
0.6633719136636387 0.0 0.38116790406898005
0.8110281679935099 0.0 0.41026925860562374
0.689599763634825 0.09092122234482503 0.5913420684367994
0.6528078129189657 0.06688084061680688 0.5834275002442039
0.6309857634837958 0.08455556727424626 0.408317125445111
0.6514051557038546 0.10010412682925421 0.4009359022941837
0.7064774203501865 0.1295651366763756 0.4475986720036153
0.7289917915062323 0.13391897071395964 0.5077148757682589
0.7359804603797201 0.12779838297066606 0.5662507533677952
0.6543986661670573 0.020346289951343917 0.3735249152995731
0.6991116520569476 0.07923520588041065 0.3653346818809485
0.7772672681094799 0.12757366513399565 0.5618437595935217
0.7786449856758388 0.08857954986006984 0.3783118524616234
0.8148147253511063 0.07748704164501684 0.3886431680202885
0.8160548663785416 0.09106844413881582 0.4555727240393837
0.7499792823652622 0.08134281527811382 0.5922619147750455
0.8309236104558757 0.0517838081989819 0.39923918791336105
0.7765392567443886 0.12743318553706368 0.5633292320015516
0.23680575891359779 0.0 0.4007441550625484
0.08740385571805817 0.0 0.36085189723255906
0.0 0.0 0.28122038876087213
0.0 0.0 0.24683858291153804
0.09905041689007854 0.0 0.18873191014291002
0.2426476715652302 0.0 0.39821602633244263
0.0 0.09980800782014355 0.26645119471714307
0.0 0.11165966310428255 0.25801288373698106
0.005617432581669782 0.11756473256359783 0.255308435760773
0.15501444759179392 0.11562856413949751 0.2965779292587387
0.24342651385478048 0.038209172857088525 0.37530726983926943
0.24334522873825765 0.01082780021816275 0.3947809468334688
0.24295445227611703 0.00041091233237145055 0.39796436040685235
0.2385082597613093 0.048255382546495196 0.3100661192993782
0.2260594960480313 0.06203467463885559 0.2684586783009353
0.10902650467064623 0.009494168972205924 0.18713008788047758
0.10208193220260381 0.003441730928005627 0.18729794006457118
0.10342029366642289 0.011482034237922554 0.1873174377361753
0.41925653212382225 0.04544135654662197 0.0
0.41315141440337383 0.053871896850850295 0.0
0.4175791210413897 0.06561971720785967 0.0
0.42884338928253846 0.032022576248059945 0.007124938203055784
0.4341669345979396 0.02439288806444017 0.018126310786208598
0.47232517690193887 0.0495950776129882 0.08840844643320522
0.4654657344597564 0.14435676086251692 0.0651183655503384
0.4556186545730157 0.1369439421774447 0.04707899506917959
0.4426373580794695 0.11542950151784398 0.024558056377836496
0.42875728751367165 0.1275015362850986 0.32965881898696703
0.4061963970336888 0.10961246758776677 0.3281541140450979
0.3605191810430618 0.16560065454306452 0.3116494491146392
0.3943771202539345 0.17976093713206687 0.3157592940249332
0.4848940437729845 0.21485300364875815 0.18786830122280432
0.4865860542693424 0.20772830856265212 0.17786645086253497
0.48955565407253393 0.20501342521446758 0.19237596248366004
0.3830778096610341 0.2165137859066794 0.2823919308057278
0.4186534798547732 0.2362075188212586 0.17762183322624736
0.4553821358180026 0.23483514558031834 0.19963351409019883
0.39158718086149424 0.21689478164856218 0.2832995171285713
0.3866689384135414 0.08377700363873368 0.263338052993066
0.4088327586785171 0.10468273461841031 0.32713586481037116
0.44836660015471025 0.11046332571381995 0.3254238596633989
0.5073377950705368 0.10453499475132921 0.269527819636129
0.4069914501901497 0.16894868145116346 0.0650293091199084
0.373267834544289 0.20376863531477543 0.29360568971780404
0.35265079404226635 0.17192753054065787 0.30495610726686156
0.3460501940339329 0.14004833338139985 0.25618539393943324
0.369834362492929 0.11152705262145754 0.08539871999848782
0.42052334740664926 0.14391609108948783 0.034877033373744856
0.3907549262666124 0.19415730920615212 0.3058263682845047
0.42570447168345543 0.1068093066145917 0.00971376222422735
0.5073809962456942 0.1648502633184439 0.9346354336794416
0.4694223968186712 0.1554709956157237 0.8946255209418273
0.43594158747189005 0.18844416227998761 0.896734728233605
0.5063430985706168 0.18972447876292337 0.9563283965987573
0.5651935007153398 0.23953016941999367 0.7206294694925265
0.5529866406174592 0.24810963849393602 0.7047319531622122
0.5513790584745584 0.24640522264682724 0.7022536531678061
0.5598620863852894 0.22259115545188887 0.7108785636270342
0.5314532257636256 0.14924583529869387 0.8992276910755922
0.5389191017727435 0.13139729771649492 0.8515593306620828
0.4998007307950588 0.1100087794742904 0.7772674634666303
0.4788655753828192 0.1112832671268519 0.7733834697070081
0.5095778546328142 0.2650743307403587 0.9508512470311004
0.49462774750894273 0.2688714958508919 0.9377522479708336
0.5147056609037955 0.27630160711598306 0.9312231530857941
0.38948746579403914 0.18781533417466106 0.7392768510523041
0.46735133963165393 0.11848244080761833 0.759790415381274
0.5068673774492843 0.12323154682442278 0.7545072050167739
0.5561719809589319 0.18142957606990584 0.7273732810646948
0.4010725676541095 0.22559965458653877 0.7234266533471538
0.5545704489042321 0.15687333773262746 0.8840672934745041
0.5626219295067442 0.15268613058687794 0.8643756473478751
0.5160098316576209 0.20797513821236568 0.9625388971135007
0.378989219216264 0.2282656153872925 0.8440674317019995
0.578420915181107 0.24223991274223783 0.7758661272120139
0.5498027118222159 0.2908083889380988 0.8286762018123968
0.5394190747055542 0.28779154123670136 0.7824984146132907
0.5759266388298139 0.17934394664696474 0.8147094521741303
0.37022856063922027 0.22570654149980812 0.8059332982055212
0.3947710823273506 0.23568272541738472 0.7443099966409258
0.3926971656741811 0.7542198945112779 0.0
0.3678578849844916 0.748857350680976 0.0
0.35916526494658213 0.8659643297488461 0.0
0.42684788478001473 0.8953429718829968 0.0
0.42751972691043505 0.8504786509428794 0.0
0.3863886885606316 0.8478820306008613 0.2013598434859765
0.36961853500405756 0.9078925835480587 0.1567062512231029
0.46198294609439783 0.9274789606064374 0.0707659637125688
0.4754226026327666 0.8901394287611051 0.09635820455558008
0.47350911661832573 0.8143384118833136 0.16960863533410486
0.4351270365682 0.8040316010626594 0.20737599523817005
0.4060813277554642 0.8237560421544782 0.20986533361836424
0.34013270331922235 0.8533876081311377 0.15060253435917442
0.3396818009712195 0.8894372443302838 0.13381962867923722
0.3658471776489112 0.7404273943128429 0.019886475980909292
0.40444384123610444 0.7352833546178255 0.05340420856301102
0.344566236482173 0.8201329937827903 0.13577989723639414
0.45573976903034097 0.7678663295056162 0.16685873033582166
0.24784293181826714 0.7704997473949273 0.6846207133131804
0.23856464377029457 0.7602533179960727 0.6920052237497938
0.22059209863065152 0.7305186431236463 0.7040489262586713
0.23838658701987805 0.6781133835692263 0.6734116044122449
0.2522318510117112 0.646593483428791 0.6516897778577737
0.26616983431874264 0.7330619439793704 0.6568473415679119
0.2557823181815502 0.7823525297958192 0.6964781298761887
0.34383089642814463 0.7143109378542006 0.8265800605481518
0.30103935981487223 0.7596787837933153 0.8223968708698656
0.3056132720851458 0.8079154883928299 0.8056801066195878
0.31027980614787004 0.8158707600796173 0.8019645420654953
0.31644354750896714 0.8172710595379747 0.8000014853874675
0.32507947610768045 0.8049060884305838 0.8018832881018816
0.3636277225261106 0.7271315788287394 0.8175840204098519
0.2751212076835529 0.6142332880185686 0.6529331332420961
0.35365160455092076 0.6645777065746397 0.7895818349036371
0.39523064630288557 0.6843004968107056 0.766508905939279
0.39710883877868014 0.6787722440753863 0.6771126338630511
0.35204843485534093 0.6523978156206821 0.6332931483575781
0.30033616823749676 0.6263248204544382 0.6407433844143811
0.3168438696600786 0.8188902131613217 0.741189072627053
0.31638846631754797 0.8194461707547372 0.7436714457575798
0.31588284027208674 0.81940393163313 0.7419616999675427
0.31640876692403297 0.8190807573419455 0.741254201531413
0.2640872260200487 0.6210459487972299 0.6471381961687512
0.26201018893367406 0.6241568958883541 0.6478125065997938
0.2791239090998831 0.7702381821635957 0.8080183462292736
0.2900922850541136 0.7690365936426011 0.8191563021115752
0.3525803037871326 0.6862063759993848 0.6362418831212373
0.3995268847225742 0.7012320101221632 0.7396527749654718
0.3887615888922125 0.7190664207545198 0.6722747991276722
0.40134003568446 0.7007725734925295 0.6826445067111194
0.28963696960016627 0.814045634006516 0.7347546873579555
0.2902505437205721 0.7831854189773043 0.81425317313677
0.28286263497058395 0.8085984394625345 0.7248527827729926
0.39657891918913213 0.6915291976773336 0.7695826054501933
1.0 0.48403795696775814 1.0
1.0 0.5947772378571129 1.0
0.8960473679089105 0.6510604361682535 1.0
0.8558141829717538 0.5834557791431108 1.0
0.9046108218372516 0.48824803644161735 1.0
1.0 0.4614824841063623 0.8640933940242965
1.0 0.5063289920867864 0.8149528371950404
1.0 0.5658270750513383 0.8244243904175478
0.8108527770281739 0.5240145736724656 0.7719965919110141
0.8474400942007551 0.5984472133798231 0.7926993346935792
0.7976721704621698 0.57124000979104 0.8053197231173663
0.8576600157253259 0.4593304771029946 0.8132730488642923
0.8708262829929633 0.6519980644765138 0.9228693470202372
0.8843531145690197 0.6253909509459867 0.8059210932573528
0.8021311258346375 0.5839533342885771 0.8384951477390258
0.828675231833942 0.48836131022092294 0.7706337626057704
0.4744070937365883 0.5403674755840289 0.7808755378314484
0.5499500573120525 0.46397910508823964 0.8333450466184734
0.5718894534668275 0.44982771964587037 0.7575069165422066
0.5673855402640214 0.4554907562763133 0.7418090617200708
0.472152122834495 0.542843402973433 0.7770904187639482
0.5428486883624413 0.4940288495818539 0.863862243612494
0.5553544324726185 0.47633523407629197 0.8647234143554954
0.5895483296276787 0.5880819620633408 0.700799214305061
0.581230968076352 0.5511185922399174 0.7003342266706474
[...]
CELL_DATA 512
SCALARS volume float 1
LOOKUP_TABLE default
0.002885597055307629
0.0018915910412500526
0.003420967769768616
0.003332832705546917
0.0020502110782808997
0.0020846051888706884
0.00429942636117663
0.001075994585167116
0.0017203310811528326
0.0009237242058157078
0.0021437223571088996
0.0021292530513539448
0.0010516611234431157
0.001938631094339658
0.0012962076506772347
0.0012564869406078549
0.002083291883828745
0.003317179430439562
0.0021064655804835654
0.002580987194098471
0.0026098614186596996
0.0019940867968111222
0.0013740871466823804
0.00048704997783940003
0.0014814990557073223
0.0015651096983549826
0.002019442730476186
0.002502858951969836
0.0016999828239731005
0.0016307758541001048
0.0009188662533349481
0.0012797338320911643
0.0016322220910251963
0.0034392016802361285
0.0014742830431601318
0.002083432533880424
0.002205011878447447
0.001242642747936504
0.00234989745328798
0.0028904143045094836
0.00230678639011789
0.004917633528440206
0.004356574607013017
0.0022919880188264196
0.004118150932615703
0.0019997552136865296
0.001436973054004628
0.0025931017372838234
0.002262624581529961
0.00038749464684466014
0.002165111090018605
0.001836080240998942
0.0004505243268044275
0.0029690894634500425
0.002060440255613931
0.0032103835185993226
0.0011233272043887992
0.0011986894168556814
0.0009857364742405497
0.0015644811889506738
0.0016632358535763109
0.0005634475294417024
0.001658452417416679
0.0015668513140103652
0.0012658325936183688
0.0015776287471478106
0.0015344548208157235
0.002563434857463638
0.0030226473549646547
0.0019102989393652765
0.002557337263942084
0.001430270807749959
0.002782541054943951
0.0018767299575633669
0.0009629687234411031
0.0022245581749249176
0.0011508969597086895
0.0018286716171258552
0.0022307031396275948
0.002809028450839835
0.001516948119742937
0.001368276813538463
0.0018686475296831124
0.0027725352709250667
0.002851870066854803
0.0010568934518624049
0.004699266559430264
0.00320956623249014
0.0012301824602855207
0.002916659207484846
0.002045080691671121
0.002965458692599195
0.002354654732544044
0.002944215494185561
0.00117195310350405
0.0006851458255983257
0.001988749699976985
0.0017550325978690085
0.0006501499729570639
0.0012546008411037477
0.002506111815024278
0.0011134306341022044
0.0009404077992596394
0.0031737100275721552
0.0011091860447563057
0.00349047878014505
0.0014614441703029778
0.000780495739506325
0.0006240952529505996
0.0024288059237230725
0.003223877256962274
0.0013185398042600673
0.0024828972515257746
0.0016804373614607768
0.0032501546868639185
0.0017128039532244602
0.0028358128275643565
0.0021508121035572576
0.002854004896436169
0.0013880406797659465
0.0008842262157415973
0.0013457860075836191
0.0013845668024013915
0.00324645039293312
0.0018087288900901946
0.0015508235254252589
0.0016413159873605117
0.0012404088517274307
0.0006000084983675584
0.0014637602608936575
0.0006995809904345791
0.0014354893679858396
0.0005852722312108636
0.0016236354837709107
0.0015746995352220608
0.0014757721595332503
0.0014310604398610498
0.0031674720582541773
0.0033306056064166933
0.002383913589637191
0.0008941550710515066
0.0032050177913446674
0.0018972299958008054
0.0019231130270389698
0.0018997230809719406
0.0010657505443250406
0.001073072045193256
0.0024456710273581274
0.0012768789419164862
0.002852585699425315
0.0021984852662817896
0.001709973022887192
0.0012757243056495172
0.002065870262792861
0.0016665472747560686
0.001148593328641591
0.001437124077955571
0.0017691977012037725
0.0014365119752061208
0.0021820073319647085
0.0014471476286569832
0.0017068790359623652
0.0015929467683502077
0.001184459022667698
0.0010656625980653845
0.0014529058831518873
0.003073785557755239
0.0009094605202275024
0.0014127885056868256
0.0026860643294631076
0.002774740669064982
0.0017350989153038395
0.002911655077793498
0.0022619338301157533
0.001520448119108797
0.002008081863578853
0.0018477471156512556
0.002329999934953369
0.0013026517513006664
0.0013822919522910979
0.0023232766277441353
0.0013765651133490408
0.00036323330717880396
0.0023888451984555035
0.0015201455461219678
0.002979309720994282
0.002850057225608286
0.0019395550879236303
0.0010785244963867342
0.001767161031381738
0.002711085654568518
0.0024144227286420758
0.0013992650861124778
0.0010269615068570599
0.0013446503356099873
0.0012559100902754705
0.001957471988269585
0.0016037718427486804
0.002156362717608767
0.0029895029594717744
0.0011504356944734308
0.0012014787829019123
0.0007976667160454285
0.0006384784902403299
0.002674201938248823
0.0017398747298636563
0.0013856968846454995
0.0011178490919748318
0.001887956610777582
0.0020121628131936583
0.0008651623307159712
0.0014411065821645908
0.0010194921841098076
0.0006207498278753647
0.0019891536598837236
0.0011253066534412924
0.0014231400765077245
0.001166597283387992
0.0015151593756971048
0.001909381869550832
0.002203474753490806
0.002158428116686956
0.0020537097433615398
0.001548405146077947
0.0025359785771705804
0.002639872812374518
0.0031408939073171004
0.0007834042229420915
0.0017245963542370985
0.0019354121596192155
0.0007667087470103744
0.0016885794720293138
0.0012200919613055987
0.0008702800759661356
0.0016039910199801993
0.0009324893557784504
0.0025948456098419054
0.002397139388061748
0.0017116945862885053
0.0024816073363922797
0.0015432488564968956
0.0015021561088115545
0.001485313677790093
0.001940093436784918
0.0016736281354068515
0.00294831970408192
0.00288995308109725
0.0015683576785457708
0.0012687879182663481
0.0013304587979641883
0.0018926563718472237
0.0013232573781774976
0.0008946034707660776
0.0004868701896622364
0.0025966219009471146
0.0015262188026491249
0.0024265230032492636
0.0008273508134702179
0.0017973584973677969
0.0018056731880797651
0.001232471149690107
0.0022559759937883445
0.0019787195684163278
0.0011545823558179356
0.0023599244188204534
0.0013166551042173272
0.002191498429309185
0.001985625915805076
0.005558529012233567
0.00227967604572464
0.0012068325935734171
0.0014791834631918835
0.0013788919788696704
0.0013521787735211114
0.002040109322060569
0.003993738089262375
0.0009131522063426099
0.002763695317393444
0.001648689850310783
0.0025158381886841766
0.0034371907325603662
0.0005925837223090072
0.0016772484478821668
0.0013628740893804772
0.0016554979216216457
0.002146497867746295
0.0020169261119959104
0.0020786000957600803
0.0017844255563572839
0.003618960932077239
0.001935252508788041
0.0023444851629165374
0.001434379266742518
0.00047036272646003833
0.003289210899564402
0.0007177362009690309
0.0016919600677139737
0.0027599396069568766
0.0019173154184095897
0.0022704877784540597
0.004534363346138978
0.0017983629497948734
0.0021948744279578726
0.001442606748392828
0.0013127765216590635
0.0012931897812021571
0.001459441978194398
0.001424449385359018
0.0031825352003528036
0.0006338719822792432
0.0021862386747502362
0.0011373664744052645
0.0011897679238309499
0.0035339847492982255
0.0011836046021939481
0.0015250420832705227
0.002850121914048279
0.002508744828429233
0.0015585511566294172
0.002154727044599887
0.00353428739241418
0.0026565252675608024
0.005185401687819606
0.002120346476698057
0.0023846385168591407
0.0020530875871295614
0.0022128514907049828
0.0015104819529888698
0.0023830605890540267
0.0012319853891503264
0.001766897038414027
0.0009307776512320542
0.0028641647906318345
0.0019743485184147425
0.0016485003008428272
0.0026708153120030866
0.0016072101157095962
0.0029648281262651846
0.0016800455681978957
0.002821391122330088
0.0006777801556029841
0.0020835041757629458
0.003901161704643326
0.0031961750483541795
0.002601412002087531
0.0010065905256747268
0.001536442474379929
0.0009210373651353656
0.001075756302480536
0.001002563332993831
0.0013455013599614444
0.001335368077827301
0.0014298497501565488
0.000895316231929561
0.003387478513748101
0.0016260815620132813
0.00302264668702854
0.002075701079463377
0.0010078532543343057
0.0016518435057707567
0.0013705946855764688
0.002648228047718497
0.0015094243794359417
0.0021485171877473866
0.0011002664743798238
0.0024478699304837656
0.0024710632614568127
0.002559186400425603
0.0004861503254431221
0.0007176238397296614
0.0008089212181731568
0.00235306309954367
0.004706341337285555
0.0023425687662039793
0.002253775610573819
0.0018429333203882803
0.0014154428036175911
0.0019073769739416707
0.0017469646428818625
0.0026424157527842585
0.001338780116987611
0.002644876720370309
0.0007539114241926248
0.002734263131071815
0.0018246102804656407
0.002178882045713716
0.0024261889085981808
0.0021340404536454014
0.0032930625114620557
0.0013739823787484074
0.001729276982857184
0.0017880577288975847
0.001494382359780206
0.0019316417502843277
0.0031049793362479343
0.0017814251236855068
0.0018177657386925354
0.0010898783609356575
0.0027691492625882452
0.0023569959030948625
0.003130036741606411
0.0008801617201977085
0.0034145925022215596
0.0021700635765262537
0.0028872465949613996
0.0034217897161131286
0.001865553935612237
0.0021054171136642244
0.0018266745312374617
0.0021413868696990492
0.0017251566639061534
0.0014574183242608246
0.0033551234970613415
0.0015833762015910644
0.0023532204788250014
0.001406924343087432
0.0011439205411427039
0.002269978445554235
0.0004961142393333882
0.0010757784569124574
0.0018622167151176512
0.0030613024568325086
0.0015751131541146108
0.001895605939307546
0.000991851367087955
0.003980054339902614
0.001160648217973032
0.002323843167491867
0.0015655554939945087
0.0007840310092839542
0.001198915431154034
0.0023063913652329234
0.0020990972124152775
0.002744933964689872
0.0021081324951875134
0.0016438758386845694
0.0009561274151350211
0.0017826245528171766
0.0027051253679113325
0.002293202706049155
0.000679925865406827
0.00296412844572098
0.0030268197790949422
0.0030135298025425953
0.002590829108769496
0.0016021586595180099
0.0014047269561336367
0.004081493114641868
0.002742867586277483
0.0011217233694951344
0.004363992670636461
0.0007906541071318324
0.0009184463513653393
0.002219751372724554
0.0021627564039403396
0.0020801723720520666
0.001994844670355574
0.0037935260849558724
0.0023099141943166545
0.0037554191272985314
0.001624627564772308
0.0013822852162799384
0.0013763065607594774
0.0015095692327938633
0.002224313095083299
0.0023876968366572
0.001361623627132654
0.003989641795400325
0.002089854573786026
0.002204708380366416
0.002577820759014447
0.0036820307494714356
0.001413701603156936
0.0031779921967042125
0.0021616489372767046
0.0013354010869364298
0.0013729266972275337
0.0032755634839703334
0.002240822355267372
0.0005925870359836832
0.0013315497322081758
0.0037845638896772784
0.0011511385947402804
0.001027749448418127
0.0005569000104568914
0.002676268212410706
0.0009098935879016388
0.0022484799969369577
0.0033908024191676113
0.002387556848246122
0.0026146646301770477
0.0013584006352319255
0.0039550974785308324
0.0029277342851887073
0.002648769119358229
0.0016661063544754467
0.001330305970077944
0.0011564258320684022
0.001448953952321776
0.002747695137327758
0.0032011171702333225
0.002470358216018519
0.0007484375526358554
0.0017748051223792783
0.001043992311597835
0.002132918993501803
0.0021309521699651827
0.0016812445923281637
0.0015660338079246127
0.0027286001371202373
0.003152068285032475
0.0002981792710472429

SCALARS cell_id int 1
LOOKUP_TABLE default
1
2
3
4
5
6
7
8
9
10
11
12
13
14
15
16
17
18
19
20
21
22
23
24
25
26
27
28
29
30
31
32
33
34
35
36
37
38
39
40
41
42
43
44
45
46
47
48
49
50
51
52
53
54
55
56
57
58
59
60
61
62
63
64
65
66
67
68
69
70
71
72
73
74
75
76
77
78
79
80
81
82
83
84
85
86
87
88
89
90
91
92
93
94
95
96
97
98
99
100
101
102
103
104
105
106
107
108
109
110
111
112
113
114
115
116
117
118
119
120
121
122
123
124
125
126
127
128
129
130
131
132
133
134
135
136
137
138
139
140
141
142
143
144
145
146
147
148
149
150
151
152
153
154
155
156
157
158
159
160
161
162
163
164
165
166
167
168
169
170
171
172
173
174
175
176
177
178
179
180
181
182
183
184
185
186
187
188
189
190
191
192
193
194
195
196
197
198
199
200
201
202
203
204
205
206
207
208
209
210
211
212
213
214
215
216
217
218
219
220
221
222
223
224
225
226
227
228
229
230
231
232
233
234
235
236
237
238
239
240
241
242
243
244
245
246
247
248
249
250
251
252
253
254
255
256
257
258
259
260
261
262
263
264
265
266
267
268
269
270
271
272
273
274
275
276
277
278
279
280
281
282
283
284
285
286
287
288
289
290
291
292
293
294
295
296
297
298
299
300
301
302
303
304
305
306
307
308
309
310
311
312
313
314
315
316
317
318
319
320
321
322
323
324
325
326
327
328
329
330
331
332
333
334
335
336
337
338
339
340
341
342
343
344
345
346
347
348
349
350
351
352
353
354
355
356
357
358
359
360
361
362
363
364
365
366
367
368
369
370
371
372
373
374
375
376
377
378
379
380
381
382
383
384
385
386
387
388
389
390
391
392
393
394
395
396
397
398
399
400
401
402
403
404
405
406
407
408
409
410
411
412
413
414
415
416
417
418
419
420
421
422
423
424
425
426
427
428
429
430
431
432
433
434
435
436
437
438
439
440
441
442
443
444
445
446
447
448
449
450
451
452
453
454
455
456
457
458
459
460
461
462
463
464
465
466
467
468
469
470
471
472
473
474
475
476
477
478
479
480
481
482
483
484
485
486
487
488
489
490
491
492
493
494
495
496
497
498
499
500
501
502
503
504
505
506
507
508
509
510
511
512
